/*--------------------------------*- C++ -*----------------------------------*\
  =========                 |
  \\      /  F ield         | OpenFOAM: The Open Source CFD Toolbox
   \\    /   O peration     | Website:  https://openfoam.org
    \\  /    A nd           | Version:  12
     \\/     M anipulation  |
\*---------------------------------------------------------------------------*/
FoamFile
{
    format      ascii;
    class       volScalarField;
    location    "0.0159";
    object      p;
}
// * * * * * * * * * * * * * * * * * * * * * * * * * * * * * * * * * * * * * //

dimensions      [1 -1 -2 0 0 0 0];

internalField   nonuniform List<scalar> 
54000
(
14925.3125393955
14918.115007874
14917.9389409552
14913.8957206972
14911.1032102876
14905.1211064191
14899.9243099194
14893.9986969232
14886.4071316697
14876.0275207785
14862.9852924927
14847.9159146466
14834.8731481485
14821.8239259498
14809.4135401327
14799.0963594371
14792.3594156901
14789.2605166386
14788.4011365347
14789.0428385198
14790.480951122
14793.3356248165
14797.3024566792
14799.8644002598
14797.7180196849
14789.6898848562
14776.9238416612
14759.0432384269
14738.3258684157
14718.1445068718
14704.6330244521
14701.7598912142
14711.0573797923
14737.9316252416
14786.5484961764
14861.6815568548
14967.0114457238
15103.8845446647
15268.3584932118
15449.2761221329
15617.482670879
15741.271618709
15820.3092629008
15858.4708374528
15848.7880209265
15756.0485150617
15551.6621250268
15174.9284555909
14719.6262207889
14360.4502869399
14188.1497392016
14170.2377886659
14261.9396740486
14476.6993765057
14789.9380109019
15120.7471488771
15401.0802776217
15553.7513285884
15563.9219675529
15352.1390219886
14950.512021298
14538.9131729672
14312.504359685
14343.6514935292
14544.5038480208
14930.4702957116
15350.5388521042
15655.6540376092
15780.1016320914
15703.5321604459
15353.5859634505
14881.0971050499
14697.9865355735
14738.0271355601
14916.1594068561
15161.0732385102
15292.9414871558
15280.1162772357
15171.2944945332
14982.5156520736
14860.7336428178
14783.7015954182
14763.1885964079
14802.3091075697
14869.9645766952
14921.6653883097
14946.9436729464
14969.63868058
15020.4141172576
15129.9563559279
15308.9290600723
15535.8612508732
15765.395712011
15948.7179744018
16056.2645035373
16134.2836890008
16150.6982950475
15954.472370126
15496.8528695851
14778.1472614561
13937.198846805
13348.4664764572
13116.9827784202
13091.681584302
13276.1101292328
13627.2867937876
13986.4825805656
14214.2686260344
14317.9303631597
14302.2805792275
14258.1962445906
14143.8563444658
14039.6608412814
14028.1891710166
14206.1188883474
14610.4934883245
15413.9060710545
16500.6742443852
17417.7375500474
17744.5436484733
17098.1772340455
15074.6333569754
12480.611343302
11525.3832956988
11368.012375797
11409.1189231785
11582.5845059397
11953.4095485343
12506.7672569927
13169.7598791385
13884.8057740227
14644.7489600978
15372.4477229677
15853.6403515418
15951.3215477585
15674.9318879081
15131.7475972626
14567.2271562312
14232.6111751686
14184.5151273732
14515.4208732072
15237.3028298049
16117.2709513224
16696.4795140354
16768.7959816565
16536.3149241253
16097.4959715167
15264.2365670579
14788.3646642611
14777.4307052683
14925.565822029
14918.3614445133
14917.4193016477
14913.9187222376
14911.2844412983
14906.2994244375
14901.4967262715
14895.6603084105
14888.220890347
14878.8124983165
14866.8309573814
14852.7602233356
14840.1951766535
14827.4067100105
14815.3025649841
14804.9959524805
14798.0454384568
14794.7077196743
14793.8675560133
14794.6386375958
14796.2288632071
14799.1306626037
14803.0259709516
14805.4018553851
14803.1337952144
14795.2079384521
14782.694283243
14765.3311009288
14745.5607239386
14726.3254085283
14712.2462364634
14708.2682350622
14717.7746612119
14744.5089545188
14792.1675666342
14864.9425650468
14967.2754867843
15100.4490100323
15261.0183759353
15435.6197157079
15598.8442656208
15726.3477892638
15809.6515895299
15852.2326371138
15840.2234447535
15744.2255978118
15542.6667191023
15181.3526826115
14744.6941260894
14390.5114418513
14207.8252807006
14184.3397304327
14274.7436399681
14485.5841689628
14792.1369126641
15113.9754570336
15384.2483914079
15536.8479513663
15545.8175869084
15335.0401981502
14946.815481561
14555.2656360559
14335.3886686505
14351.8421430884
14551.1850822187
14922.2507535312
15334.7907277842
15641.2316367551
15761.8976451102
15692.9274964647
15350.6790612993
14891.3147553303
14703.0836128436
14736.4897835427
14902.4146132924
15149.7289748728
15285.5142573994
15275.6931646676
15170.5450233652
14986.3927319991
14865.9116316113
14787.5389886785
14769.7550972384
14808.222523045
14874.3366746516
14923.5543731337
14947.9062017326
14970.4489473963
15021.8800204855
15131.5298313625
15310.7472741309
15538.2039242582
15768.1111424898
15947.1371614967
16054.5860909637
16127.0316638149
16135.4247515129
15944.2363352374
15487.3683911621
14783.8489830075
13955.0588345078
13364.1961356512
13135.7028866206
13110.0835545139
13287.2199516274
13634.5581238125
13992.5914416886
14222.1044216403
14326.8800458897
14312.5799127138
14268.2376302771
14150.4035517504
14040.8292203112
14023.6711631086
14206.1646449047
14609.524251538
15411.9571831617
16496.7759905878
17415.4013430902
17732.1716896505
17086.2248798927
15079.4465672865
12492.5702949196
11531.615877152
11369.7179703605
11409.6811646645
11582.8521228883
11953.4366789808
12506.7783964169
13168.8543062137
13882.4421920443
14639.1826209522
15367.3790933722
15854.3070304854
15951.6081307585
15676.1463358274
15132.789550787
14567.4007883683
14228.9658449659
14185.6815885968
14517.9220874742
15237.5805307843
16117.0405841823
16695.0565301164
16763.5815587251
16534.0908444331
16096.7874078261
15264.1399364549
14786.0431946891
14779.4893727201
14921.6408035188
14916.0484315869
14915.0348581169
14912.4878702603
14910.2136078861
14906.0294415189
14901.5230238114
14896.1106419845
14889.4129143619
14880.7544949243
14870.094851998
14857.4377297946
14845.5853793249
14833.4152371189
14821.7736122391
14811.7424886608
14804.8215425085
14801.2387778315
14800.2826257929
14801.2590906934
14803.38449047
14806.7084504616
14810.8317855811
14813.2912230709
14811.0764978761
14803.3590355298
14791.338537715
14774.8985445238
14756.3924372284
14738.4686782146
14725.1800855795
14721.5674302083
14730.7622180316
14756.4333663993
14802.3322930959
14872.0253341903
14969.7954049004
15097.4123401468
15250.6316614815
15415.7997719049
15572.5381759101
15701.8578958583
15791.1883674392
15835.3569611314
15820.1829814296
15724.91811192
15523.452881892
15187.1658690735
14780.5706217858
14435.9604050553
14244.7021062923
14210.0141331371
14297.9091598646
14502.9963381027
14798.7673481845
15108.0965815272
15361.9117541475
15508.752148259
15507.8271311807
15305.153272293
14940.4733999677
14578.0245410579
14368.3982039954
14365.4802062847
14563.7851511306
14913.7224834012
15316.0905941235
15616.9452979406
15736.916690144
15674.1182049593
15343.5596804303
14907.8304242337
14711.628111627
14737.0170209792
14887.9013686559
15128.822974228
15266.2725713551
15265.1089863795
15166.5283151412
14991.7104995987
14873.6821993065
14796.9142558005
14780.1566483931
14818.8738781438
14881.8673541358
14927.036171768
14949.8464076803
14972.4052854623
15025.3470304657
15136.0757499681
15314.5767099794
15541.8595139482
15771.0666940451
15944.7807942152
16052.0597179654
16116.1634026629
16110.2452115036
15922.3353960502
15465.5392612708
14786.9805448831
13980.9028570836
13389.4818606633
13161.7410743652
13132.5873447139
13305.9375620264
13647.5845622044
14002.9104017272
14234.6870097588
14341.3713826441
14328.6297300205
14284.7320442578
14162.6044865373
14046.6585246359
14025.4158775495
14209.0653193268
14610.8574673467
15411.2285797236
16493.0964021135
17407.8382203786
17710.2506556183
17061.6675963692
15080.2274639279
12513.0536373268
11542.6814652138
11373.9761221612
11411.7770035887
11584.1713840136
11954.847465177
12507.7612979006
13168.9156306506
13880.7713534912
14633.5237758767
15360.9793392823
15854.5501749165
15951.426671005
15676.0875325844
15132.9265541094
14567.2638354954
14226.4557907513
14186.7996735893
14520.4165943946
15236.7781074368
16117.2751688289
16692.4271302616
16757.9701199909
16530.0663940025
16093.7135971781
15262.4256636312
14785.1197844429
14783.4893277219
14915.8415870983
14913.2194522912
14912.3752197229
14910.9510011774
14909.1580257059
14906.0042022204
14902.128300026
14897.193420957
14891.6230699925
14884.1327332852
14874.6565921259
14863.6003795483
14852.8600130788
14841.6387508467
14830.4809207451
14820.827863056
14814.037693751
14810.1137401996
14809.094667369
14810.2451879732
14812.9191900032
14816.8454663703
14821.3695107759
14824.07588769
14822.0859036431
14814.8935230552
14803.69088888
14788.3257415405
14771.0096860854
14754.5062822905
14742.7079593427
14739.7240495188
14748.3951644197
14772.5544869325
14816.1919411668
14882.1691070496
14973.8956586912
15093.1784678141
15235.3012476366
15388.7477810931
15538.7256900175
15669.2048771456
15763.9901668193
15811.0995007355
15792.8874804631
15696.7958132178
15499.6711479202
15195.0342623776
14827.8039159091
14495.1711849433
14296.7051710071
14248.6901347134
14329.9644255756
14526.3733530633
14807.6761606829
15098.6125160412
15332.0913249998
15468.3815693163
15457.0720457116
15265.2079983817
14933.1834613157
14604.6608557667
14408.3375861099
14389.4902983118
14575.1772243447
14900.4338603163
15291.9863549042
15582.7942246495
15704.1863808434
15639.4681343108
15335.0163687719
14926.2080261119
14723.0501038721
14738.8897477713
14873.9592892022
15099.4103468567
15239.85016286
15249.8052713654
15160.1467745991
15000.5287923371
14886.3612249392
14811.120864511
14794.8941331777
14833.1238796379
14892.0301432517
14932.3847254728
14953.5242367029
14976.4585829128
15030.740671906
15143.3720631665
15320.6979607728
15546.9625602157
15774.4949884588
15945.2371759994
16049.6641678631
16100.7884050683
16079.8240034539
15889.1279191822
15437.6470012041
14790.5100462783
14017.1896093236
13430.566487869
13192.2198463911
13163.8229639969
13332.5620076115
13665.1959029528
14017.0739668749
14252.6473725279
14361.2736983673
14350.5897152264
14306.3962190068
14180.196211518
14052.4846741612
14035.2127576589
14214.1977988693
14612.1460751884
15409.5560452682
16487.9496030842
17395.0243351087
17676.9787752189
17026.5343070813
15083.6910132265
12547.9283026878
11559.2982391748
11380.3123610272
11414.4178007036
11585.657731165
11956.339943848
12508.3659387477
13168.6616427569
13878.0618129082
14625.8934462585
15352.9990116512
15853.7923530652
15949.9129820378
15674.8311562563
15132.6571991595
14569.1507089811
14226.7666758461
14185.7828327251
14522.9008890936
15237.1362663837
16118.2897135565
16688.6505807667
16751.9609234991
16526.0536749389
16088.5739031448
15261.5230251662
14786.923240226
14790.0683486467
14911.9530925069
14910.3655117168
14910.1233479837
14909.5499333829
14908.3942051956
14906.263987358
14903.1288367703
14898.9361035244
14894.1797099962
14888.2839537575
14880.6521827462
14871.0444630573
14861.3133974755
14851.2441869377
14840.9797717839
14831.989569584
14825.2843442569
14821.3236201053
14820.206348506
14821.414257364
14824.5304522081
14829.1682790883
14834.2235755049
14837.444836677
14836.2384097874
14830.2211202969
14820.2432463865
14806.2247285164
14790.4171381665
14775.9056386944
14765.8518792604
14763.4102295364
14771.2952817699
14793.4237583133
14834.0078371442
14895.2249988769
14979.0496690528
15086.591277639
15214.4954797974
15354.9960059011
15497.215006318
15626.7118467888
15725.6163279143
15776.0973422053
15757.4504599389
15659.6393639807
15472.6845168955
15204.6504070394
14884.616274229
14571.9931775239
14366.3584336714
14303.2504878862
14372.4682792053
14558.979963212
14821.4121643809
15085.6708722083
15294.4696752173
15414.9190074604
15391.9119243946
15215.2206061946
14925.7029814182
14638.8993554674
14454.7455901321
14424.4301173548
14589.0256956873
14888.3597745918
15263.0123388141
15545.6649710447
15664.6541702488
15595.5751071079
15323.215062077
14944.6809118323
14739.0404031234
14743.3103371489
14858.5200393992
15059.2363630421
15206.3545518573
15229.5996229095
15151.4787121114
15011.3108316586
14904.5516428886
14831.7698533298
14815.0404647197
14851.1070061307
14904.3014020543
14939.4931503103
14958.4017021704
14981.820602769
15039.1415023428
15154.7776253332
15330.3571073328
15553.3019950861
15776.1904998633
15943.2285446885
16041.8855951136
16082.2581661086
16043.5325898851
15846.9681792792
15403.7196452704
14793.8587733877
14066.5450186779
13490.879327575
13232.0470443908
13206.5757448988
13368.7396060797
13690.360467545
14036.1648780112
14276.0546805139
14388.7804248873
14378.9130921672
14333.9110279692
14204.6540795237
14067.0683374385
14048.3005539998
14221.8752462787
14613.9244344997
15407.2770057903
16481.6288002646
17381.2619985861
17632.5362200325
16977.9045767511
15088.1620790148
12599.4679610225
11581.3147981943
11387.9083955937
11417.2327736864
11587.5522601756
11957.9928025594
12508.6297121628
13167.6973979024
13874.1308600292
14616.586030472
15342.983181177
15851.1714773846
15944.4699941295
15671.6340101904
15131.661008102
14573.1284547889
14229.4381576389
14178.9123589176
14525.920467266
15237.6023762718
16119.6925040549
16682.86496669
16749.9215379745
16523.3250747561
16081.037403115
15261.0824831979
14789.263906526
14798.6806152801
14908.0566424855
14908.1932236785
14908.5658690748
14908.6226500248
14908.1143024588
14906.8464314369
14904.5981909022
14901.4481453069
14897.6815320888
14893.3015820497
14887.4148647688
14879.557431682
14871.173373944
14862.1595219905
14853.0114194549
14844.8699881127
14838.6517438797
14834.8760577461
14833.660631971
14834.8072919119
14838.2297662987
14843.5726876888
14849.2747253673
14853.3185908165
14853.4142070105
14849.1330282008
14840.8684344371
14828.6461865048
14814.7079839969
14802.381266693
14793.891636124
14792.0202244517
14799.2376798331
14819.2135100576
14856.3127410929
14912.2541788108
14987.1247324207
15079.9978810809
15190.2161751012
15316.1057930501
15449.2373536584
15575.2687953391
15675.783330401
15729.3234353324
15712.9500260665
15616.2277821634
15444.7464013072
15215.4905876378
14947.2719422911
14665.8338771957
14455.9125568307
14376.7649314915
14427.8434572602
14597.9965458756
14835.4873846854
15066.3873799343
15248.6260606872
15347.753916275
15315.9201663369
15158.0402591488
14917.3717812359
14678.0398728288
14510.0304226298
14470.8818248965
14604.4682220432
14876.2933243354
15225.2373860437
15503.2544484243
15617.5996033916
15546.6422979861
15308.6018337723
14968.7067420139
14760.0465991822
14748.3677311893
14844.5843845238
15011.9198817787
15158.8875952766
15203.626449045
15143.0302945708
15024.3554560411
14926.1501447209
14856.0369146001
14838.960646971
14870.3273660409
14916.8483206307
14947.7228038227
14964.9169010994
14988.0429381432
15048.5094354292
15166.8747378753
15342.232832949
15562.4766067422
15780.1477210031
15944.3427571125
16036.6908164342
16057.5380834318
15995.9267435044
15791.1398194205
15367.2758998673
14797.3147917027
14126.6760735106
13560.3834173224
13289.6227089764
13260.5887524366
13414.5014123698
13721.7752513805
14060.403147745
14305.4881945335
14423.8480934879
14414.3812497939
14367.4408280725
14236.3170614019
14090.3950275182
14063.321467474
14231.2337223282
14616.3559246771
15404.2537900462
16473.6636672434
17372.8642224198
17577.3552420786
16916.8460028751
15091.9220274436
12667.3430546937
11609.2798986122
11396.6358542331
11420.7389945331
11589.7644988346
11959.5443202312
12508.6945676138
13165.7158241554
13868.6650698515
14605.0526121223
15330.5824163127
15845.5685112812
15936.2379664279
15666.8926123597
15129.9685431823
14579.7515100129
14240.7966269496
14179.1603339789
14531.1528879613
15239.2741117766
16119.4612932529
16675.1294159514
16743.0953269845
16520.6404472235
16072.0354660234
15261.6802881576
14798.2343959104
14809.1529450063
14905.5982582351
14906.7502857841
14907.5782874833
14908.2465935453
14908.3469078257
14907.850448466
14906.6609381938
14904.7911756837
14902.2728131979
14899.3705306088
14895.111305847
14888.9470677675
14881.8773969978
14874.0815970476
14866.2917637463
14859.3668236324
14853.9916659825
14850.6271079778
14849.4360853953
14850.5637439939
14854.1888908789
14860.1164094501
14866.5198270218
14871.587838494
14873.2899300622
14871.2195914305
14865.4646224981
14855.6539137399
14844.2161137331
14833.933651496
14826.8941397527
14825.767618362
14832.6462385302
14850.2513151247
14882.4633394029
14930.8913243629
14994.0372711997
15070.2812438133
15162.2610804157
15272.5409816889
15394.6301180652
15514.006212656
15611.9703244818
15668.199099007
15658.1630544599
15568.8433656173
15417.6477777511
15228.6167816116
15013.2590242098
14773.3960962902
14567.4548383749
14471.4634848097
14498.9330340585
14643.8615133492
14849.9753872654
15043.4530401405
15194.671669255
15269.4598999067
15232.1538281797
15096.7052595392
14908.2178655686
14720.0243514527
14573.3864836754
14528.4268071863
14626.2375909627
14869.1448955751
15183.515982208
15452.4674453388
15562.9086115948
15494.0512094449
15291.3175051307
14999.6075063724
14788.7188052785
14755.0931410228
14832.589473169
14967.6143861741
15106.1481760601
15169.4996918479
15133.4206836868
15039.3106944042
14951.2820401917
14886.8326673461
14869.2681085086
14893.0789362859
14931.9377731973
14956.6538659355
14971.4631564865
14997.8964370145
15062.7868058689
15182.2763886842
15358.8958160647
15575.9798284165
15786.8854090392
15940.7444726219
16022.4716228249
16022.418198262
15937.0117327433
15721.6358261076
15327.0735834645
14801.4061566097
14195.1112781664
13637.7131128629
13356.8814683959
13325.337238346
13469.3625829353
13759.9647302951
14090.6898887227
14342.395840289
14469.7687190645
14458.4886840843
14407.6188242944
14275.1288982133
14118.7137641079
14081.7465347645
14242.3795179569
14619.8493483745
15400.9370680709
16464.1477706708
17357.1309355759
17511.7006261349
16844.381901021
15090.4128788289
12749.0250655205
11644.3856894231
11408.8055670473
11425.7302419135
11592.5271630883
11960.5361825941
12507.4542392055
13162.0480861469
13861.3932549509
14591.3318644385
15314.047665774
15835.7929989925
15930.9033240109
15661.1141473653
15127.5597629958
14588.0723941668
14254.7573141754
14192.7046694757
14540.4519529119
15243.3559058917
16115.0254157429
16667.7398239813
16732.6721560415
16517.3254717646
16063.5566071487
15262.9971355067
14811.7336896635
14822.8048999276
14904.6758082957
14906.4079629439
14907.5972902723
14908.7816480043
14909.4025507356
14909.5396108471
14909.4709383821
14908.9743877329
14907.7922116355
14906.1847440084
14903.4501634841
14898.9275428947
14893.196807731
14886.8744660546
14880.7225706594
14875.3578316342
14871.2317031238
14868.6222070051
14867.7351892953
14868.982611668
14872.7051403971
14879.0278468763
14886.1127153154
14892.2186004178
14895.5678021513
14895.7113644843
14892.3135193262
14885.8445534131
14877.826486027
14869.8422132318
14864.4512362595
14864.1029254267
14870.5657380485
14885.7690867668
14912.3312850215
14951.8329216799
15002.718607597
15063.2532028973
15136.3512865629
15227.5974407272
15334.5633230773
15443.4562595145
15534.8516867106
15591.2184088619
15592.1704632315
15519.6571682031
15393.0658286467
15245.3892225403
15081.0445073711
14888.9622116038
14700.3735589259
14587.3995266723
14587.0687799922
14695.9200588662
14860.0481641621
15014.1833412088
15133.6093482886
15184.0085243512
15144.8936611298
15034.3041483084
14900.5452740723
14764.7046033407
14645.5557568776
14597.3589518952
14659.1942675638
14866.2247968122
15132.9226205399
15382.7861292153
15494.345620956
15438.6733158238
15270.6341191023
15032.4681913977
14820.0905050121
14764.8951389717
14823.0467115993
14927.941829239
15056.3541327206
15129.0603676078
15118.4000179428
15054.8576288198
14980.7456286281
14921.0335843391
14905.2785365527
14921.9794094959
14951.7881457737
14968.8489213695
14980.5838447334
15009.3835112629
15078.1453967322
15203.2723351165
15381.5910940702
15595.4101176592
15798.7559832188
15935.4667315794
15996.8534034785
15982.3304819049
15867.458828631
15642.0440060598
15281.5361737801
14806.4224351707
14267.2009202141
13729.782424282
13433.7402997525
13400.628467498
13535.3226103107
13805.9513688768
14127.4582344288
14387.9689839538
14531.3769776091
14515.643146015
14457.4667144578
14321.2285115613
14151.6789117032
14104.708651617
14257.2904157404
14625.3343667658
15397.596652148
16452.4699618375
17321.3472507786
17432.1039116539
16757.9431802676
15080.6528171905
12844.326688828
11688.7092037631
11423.6443006126
11430.6552057945
11595.7133676696
11961.1188992323
12505.1562715086
13157.1374589176
13852.5769570966
14575.1220747944
15292.63945927
15816.0359223174
15925.4585833185
15653.6539951396
15124.579974823
14596.5937059679
14261.4074287816
14210.2432251701
14552.9799320809
15248.5023253683
16108.0273837116
16661.6266075146
16723.4309087103
16515.3554518771
16059.2860632489
15266.076241285
14819.0571175601
14839.5340251736
14905.3586448487
14907.3085912459
14908.6898883847
14910.2652505513
14911.6258721583
14912.6919358391
14913.8626103209
14914.6355996672
14914.6136857056
14914.0271415084
14912.5439841007
14909.5397450259
14905.3124067313
14900.732707736
14896.5564572224
14893.1109241363
14890.6042753834
14889.2337741007
14889.1286545853
14890.7783244483
14894.5944457488
14900.6180992564
14907.453562451
14914.4023431395
14920.1660706876
14923.0297850846
14922.7543361933
14919.2165668109
14914.0994939514
14909.1274678457
14905.9438083616
14906.5661319219
14912.7054538509
14925.2856401583
14944.9967603575
14973.0147558264
15010.0627121245
15055.1353769784
15110.0129179385
15181.2958137471
15270.4717142199
15365.366675121
15447.1148956928
15499.393433964
15511.9011184457
15468.6876253957
15372.3697956777
15265.3224040593
15149.7561684642
15006.3659843
14849.1641552245
14726.5718395344
14695.8235247384
14754.5510796105
14865.8772160264
14980.8777248079
15062.5728295854
15087.498995579
15052.5262126324
14973.9381111729
14895.0919216574
14811.7642502014
14724.6993643129
14674.5364630679
14703.9684927715
14861.9048639611
15077.1494532872
15297.8990295848
15414.2384838278
15381.2423931682
15248.3867734282
15066.6958527249
14866.8241789706
14778.6056975012
14810.390932651
14886.2450896645
14998.9053208224
15084.3575948941
15099.1389554066
15069.3881244046
15012.3741474035
14959.3445824844
14942.9339076539
14951.9538221806
14968.9165664464
14981.7755606649
14992.6655771851
15022.3918136831
15096.0934307239
15227.0056447271
15406.9710977148
15617.1701681769
15811.7325126202
15931.0184090751
15973.9864974641
15940.9662608235
15789.1977681305
15555.0308378219
15234.4303090876
14811.054736379
14343.3009961554
13840.8215253919
13525.3902202912
13488.6556953344
13612.7269074967
13860.1564472977
14170.5900436187
14443.0567328414
14609.1883616361
14591.079491095
14523.266473605
14372.9926615676
14190.404745235
14133.3151975996
14276.9088410305
14633.6345205098
15395.1013119151
16436.4223905184
17271.8831025595
17339.9323569867
16659.9963830116
15061.1531335084
12952.592807082
11742.9641015176
11440.331386114
11436.7292581178
11599.4585233754
11960.7555541796
12501.4159425169
13150.8907080439
13842.4651876322
14556.768674338
15265.9417361158
15783.6378306764
15911.4634516314
15642.9717747732
15120.8601043781
14605.32485788
14269.2596984222
14225.0972226542
14566.1429044974
15254.2413599264
16100.1937135412
16654.6156022849
16715.7303534815
16515.4779943983
16062.8772145728
15276.9470120037
14831.6438858643
14858.8783528215
14908.5190597105
14909.797352585
14911.3258604389
14913.3445961878
14915.0835865238
14916.6284257638
14918.6571530742
14920.3884862325
14921.4083474587
14921.9369480623
14921.8349028794
14920.691649002
14918.5236500194
14916.0893995019
14914.1945117003
14912.8427789581
14912.1753971424
14912.3107723969
14913.3396316041
14915.5323098745
14919.2291005541
14925.2448542155
14933.2816891642
14940.8939982336
14946.6490294788
14950.4529691588
14952.4807289635
14952.9778215114
14952.1886980937
14951.0937550772
14950.8742223038
14952.7158273721
14957.913851533
14966.812844603
14979.5146146481
14995.7430625999
15017.7231611554
15048.7178429767
15088.2961618236
15139.5754663942
15205.3322393965
15279.7382927425
15351.4165886184
15402.591672971
15424.4823103499
15413.679823967
15356.1463292031
15289.3015730693
15218.3515518871
15120.8741656194
15004.4311576311
14886.9717844719
14814.3521202999
14816.2198615306
14871.3049962389
14940.5897848657
14980.5075239107
14987.0434171968
14960.3115824851
14917.9892269504
14891.0314908445
14858.7088586717
14807.1664619955
14756.7862900196
14757.2208307941
14857.5482404741
15027.9267854771
15210.2933051669
15325.2489328751
15322.8519156876
15230.5142084776
15096.5734082979
14927.5984123092
14806.3159512872
14804.3462100336
14851.0530623988
14945.5099023993
15037.0067417383
15075.2865741021
15076.0456718311
15039.3110783338
14997.5155032012
14979.85545191
14981.532094458
14989.8931929134
14996.8288488996
15006.7538579687
15040.3992239616
15118.7807938598
15254.4841638126
15435.5957765352
15642.9150484837
15824.847445435
15925.162522869
15950.8319782544
15885.0771440956
15704.1957018997
15464.608418144
15186.1292078115
14817.305958736
14421.4192475936
13967.9498379001
13635.2195143759
13587.0387010782
13699.2071122329
13922.9482255002
14220.1830580182
14506.7259270993
14698.0959097402
14684.7137817318
14606.2648575527
14439.5060393768
14235.7737851688
14168.8884134168
14301.7024116884
14645.3383997141
15394.4036833417
16421.3264925333
17209.7363224947
17236.5990400574
16556.1368236997
15030.2002568758
13072.3556205433
11810.782139268
11459.7599695457
11444.9014477
11604.1044393498
11960.1017338407
12497.207894911
13143.9424575902
13831.452318707
14536.0257905846
15234.1463829845
15755.9733251293
15891.634016537
15630.8657723213
15115.7364350443
14613.8931246282
14285.025647878
14239.78353132
14579.1346475622
15259.2392518271
16092.611462825
16646.5271496543
16708.9443143825
16518.282076023
16075.6273242264
15298.5638156541
14856.6667608823
14881.6949302483
14914.4635102541
14916.8285318486
14918.5310977247
14920.4491262047
14922.2790032703
14924.0782311481
14926.4356899345
14928.5715969641
14930.2039355439
14931.4935067503
14932.7997234956
14933.723866378
14933.7437288512
14933.2483801527
14933.151045996
14934.0064117999
14935.9719657464
14938.1357784143
14941.1809148261
14944.8397617543
14949.5846236739
14954.9427168295
14960.8542993514
14967.4364953788
14973.7606027409
14979.0474771965
14983.5883226639
14987.5828359197
14990.7827377901
14993.6058045698
14996.4154856895
14999.0962589876
15002.1671950685
15005.6101401209
15010.8615607646
15018.1382332654
15028.3017393261
15046.2202894199
15070.2391368999
15098.7489426633
15138.0062820241
15187.4806945616
15243.5078044248
15296.9110005373
15334.3908673597
15353.1002257548
15344.4578598637
15314.4123118078
15282.3474277032
15233.5518430239
15156.8442523466
15055.545143965
14953.1226255424
14884.9339384084
14878.3917758079
14895.1571920389
14896.9810143317
14887.9691437851
14874.0940437553
14869.8659609819
14888.3229605759
14902.0143675859
14891.1478639875
14850.8331333419
14817.7956905891
14855.5158498582
14978.3486618316
15117.2417836249
15227.6409143088
15262.6044069584
15214.602819269
15124.7660133564
14990.4561154792
14853.5167263443
14812.0712179074
14835.9081976837
14905.2569215976
14989.053002285
15048.2623805502
15075.520599123
15059.2418277983
15031.6381403168
15016.2367906936
15013.276604504
15012.4613224448
15014.9356680869
15026.7259508397
15064.1163606013
15149.0720004079
15288.616002397
15471.8034153093
15676.221218112
15838.366807007
15915.4519655859
15920.5889264764
15821.2577789635
15615.9305971615
15373.2823158467
15135.0074201665
14828.76813139
14497.9567947905
14105.1726446227
13771.483319728
13693.305022718
13795.2706983174
13994.0630055363
14275.182529536
14576.1148672468
14792.2048016531
14794.9364446178
14705.8693590805
14522.2767642189
14293.0763589339
14212.7073946888
14332.5827972909
14661.7027043889
15395.3762165992
16404.4302251616
17129.6796073409
17119.5385064067
16443.4023596575
14989.4012632453
13199.4825661436
11899.8334876392
11485.7719000652
11455.7979370765
11609.5245170934
11958.743619439
12492.2221113912
13136.7295114752
13819.7022441167
14512.1996547453
15199.5706093836
15720.6238503809
15868.8360946826
15618.1665148718
15110.2454312155
14624.0035536144
14304.1294437067
14256.8043296126
14592.8483982822
15263.1564875047
16085.6565718665
16636.8025904115
16703.876295997
16523.7946384687
16096.0962631647
15330.4853822574
14886.4627231958
14906.0985424582
14922.7401846967
14924.127691369
14926.0929006265
14927.9603010068
14929.711063305
14931.8162418467
14934.7644251955
14937.8763481865
14940.8414860564
14943.9282305413
14947.5980650477
14951.6035213416
14955.0156802066
14957.8202704711
14960.8959177622
14963.8689632846
14967.5069300098
14971.6196203569
14975.6012141548
14979.3934645221
14983.1575433714
14987.1631398202
14991.929641024
14997.5658695467
15003.6192440054
15009.6345192665
15015.5891433611
15021.8302993803
15027.8340471932
15033.4058613945
15038.4325398342
15041.9656702134
15043.5364880559
15044.7689670683
15044.7049835604
15043.6202716319
15042.64057583
15043.9065705875
15050.6997438092
15059.4662141112
15075.9434380122
15100.9053836155
15135.8055022984
15184.1282063329
15240.9098465098
15291.2435024207
15328.9226575802
15340.5685614899
15341.9825422123
15333.3333500905
15296.2280030606
15214.4138258865
15090.5208614944
14967.1123519459
14893.3265065356
14853.6478777349
14814.8708061566
14794.0221509094
14799.1625454544
14830.8904210423
14885.4168703828
14938.7090172509
14964.6292911893
14946.8998617969
14889.7579375153
14864.3021545407
14933.1309436358
15023.8779193646
15125.4091906642
15193.5903013115
15195.5541886881
15149.0027921563
15051.9936760401
14916.5348148727
14831.4633397142
14827.667405065
14869.7738819375
14944.5537359666
15018.1679228848
15068.5402305554
15071.4760879232
15060.5930978325
15047.5742921289
15040.9556392559
15033.7335618532
15032.7798993615