/*--------------------------------*- C++ -*----------------------------------*\
  =========                 |
  \\      /  F ield         | OpenFOAM: The Open Source CFD Toolbox
   \\    /   O peration     | Website:  https://openfoam.org
    \\  /    A nd           | Version:  12
     \\/     M anipulation  |
\*---------------------------------------------------------------------------*/
FoamFile
{
    format      ascii;
    class       volScalarField;
    location    "0.0159";
    object      rho;
}
// * * * * * * * * * * * * * * * * * * * * * * * * * * * * * * * * * * * * * //

dimensions      [1 -3 0 0 0 0 0];

internalField   nonuniform List<scalar> 
54000
(
0.473581863674769
0.473465777894647
0.473586650742942
0.473700718336975
0.473913945791822
0.47409018426795
0.47426645829638
0.474369264253812
0.474359626444372
0.47421118308507
0.473948040698902
0.473605237360714
0.473290252935564
0.472975918024425
0.472684401994296
0.472471783469583
0.472380246859455
0.472403083619216
0.472522336210599
0.472740293745598
0.473027415546274
0.47336913078115
0.473738713585346
0.474060411402646
0.474231951241107
0.474212005539188
0.474018622451398
0.47362712827297
0.473083516930771
0.472481432063202
0.471971323878529
0.471645502565284
0.471566048858329
0.471883349146086
0.472690172971052
0.474090725404135
0.476172177348161
0.478968378234581
0.482388279704087
0.486172624283583
0.489657910194968
0.492134421977142
0.493592567904568
0.494155347016884
0.493620256043748
0.49122482570327
0.486369853721663
0.477619848614749
0.467028514300908
0.458543530832523
0.45436406021332
0.453724929533418
0.45563591270014
0.460509645911808
0.467688176465545
0.475357156203801
0.482046506154131
0.485851856916215
0.486584889296857
0.482351552113887
0.473781666836747
0.464867218184748
0.459963000035115
0.460956620940142
0.465794908870802
0.474722236046299
0.484287276744285
0.491271432814985
0.494149559648135
0.492534509695557
0.484807195342887
0.474366454376309
0.470271574205514
0.471528374088123
0.476085353668978
0.482093868649614
0.485390930246904
0.485365563618496
0.48320784935531
0.479148541566914
0.476561713685972
0.474951675034437
0.474597782641169
0.475615164661772
0.477257664258234
0.478492348376119
0.479088808580318
0.479592203028421
0.480707887721349
0.483151762850573
0.487165287502317
0.492193092901883
0.497089349532811
0.500739773096788
0.502562489314946
0.503642688798816
0.503232706909488
0.497933248406872
0.486744432315793
0.469623931647631
0.449549600632196
0.435126784536311
0.429240443104472
0.427971963714049
0.431392548696397
0.438806530851748
0.446407022306583
0.451004095489281
0.452836431436123
0.451912217133593
0.450276808941256
0.447237212307656
0.444722567023046
0.444263992221042
0.448095895027906
0.457560280016001
0.475905259898221
0.500050408838631
0.520085422521876
0.526770127606667
0.511996134546498
0.467862925429834
0.410522371439011
0.388701356089296
0.384851096363295
0.385485382654444
0.388288366717519
0.39368420784391
0.400469977555116
0.407182692363224
0.414125115316016
0.423308257344992
0.434420087566161
0.442845141919115
0.444477257184618
0.439247318980139
0.429472636652884
0.418766788118734
0.412144013104629
0.410559131084136
0.416318672183938
0.430023734455602
0.446803521324251
0.457712714193787
0.458134572689999
0.452403299800621
0.442809619410239
0.426764207103868
0.418125717965173
0.418819651610003
0.47368142945651
0.473567432268161
0.473689630639594
0.473850805212871
0.474123885195292
0.474394703710056
0.474658361394953
0.474835683222777
0.474895866189674
0.474830639015461
0.474631918330663
0.474339430680692
0.474059579353707
0.473771341956009
0.473516487303119
0.473335396741619
0.473267432015989
0.473336789081306
0.473535622065182
0.473828156000231
0.474169660268871
0.474549762469818
0.474944553315764
0.475280268029883
0.475459849489267
0.475445199877093
0.475252973015077
0.474863863829564
0.474331419450811
0.473737661124024
0.473197132916735
0.472839512669602
0.47276532238076
0.473068145641584
0.473845572159088
0.475189186649101
0.477202514357274
0.479917125381531
0.483252227964168
0.486897221522885
0.490269170116468
0.492817126116424
0.494352530129653
0.495005632301781
0.494432171790759
0.491936004888239
0.487085422913735
0.478615385694433
0.468373040729594
0.459947338724409
0.455478382698368
0.454721388581834
0.45660641470631
0.461365079455815
0.468386181333758
0.4758483147952
0.482287935350209
0.486106521698162
0.486777185107818
0.482635713534614
0.474317903309572
0.465834578497896
0.461093510117309
0.461795401391656
0.466572566702062
0.475146367312366
0.484535693546137
0.491510573032589
0.494331386010959
0.492912669352727
0.48535825846174
0.475192739680996
0.47105434265186
0.472200351821268
0.476449027506881
0.482467849727414
0.485877315509721
0.485967223241061
0.483884691363387
0.479917287090126
0.47734950297234
0.47567794403791
0.475385731794663
0.476375494676555
0.47797048355569
0.479144672950088
0.479719487422098
0.480219525756694
0.481341841861694
0.483756134191504
0.487717672498462
0.492706922316895
0.497628270870358
0.501271298222099
0.503184887242586
0.504210021779109
0.503665068549404
0.498555722073954
0.487344672973713
0.470443138846191
0.450511534526672
0.435880041587213
0.429892428491001
0.428571735712118
0.4318029253178
0.439081327280423
0.446638762466585
0.451281564058366
0.453146642892325
0.452261141575116
0.450644251233533
0.447525307402473
0.444889433953235
0.444363664263775
0.448387269670691
0.457856580852964
0.476176837879292
0.500274209962805
0.52034784136795
0.526816058556174
0.51222598126859
0.468500563628297
0.411077670875626
0.389050642871243
0.385005958712047
0.385650158886385
0.388427998966012
0.393736582085097
0.400491487416911
0.407172754264576
0.414079934564936
0.423204423700606
0.434339209458851
0.442901944620024
0.444543169909164
0.439307727819901
0.42952015891931
0.418812822066239
0.412127745509706
0.410690439967273
0.416446908895279
0.430122361363751
0.446912941857338
0.457797707675206
0.458106201713949
0.452474709413412
0.442978124508478
0.426922284980969
0.41817551903354
0.418876121875789
0.473791526593155
0.473715620858
0.47385322332498
0.474085044407821
0.474447026168399
0.474841454036423
0.475229724204154
0.475531656068757
0.475703901876395
0.47573283149033
0.475632763779587
0.475425908522343
0.47520897177456
0.474982726104491
0.474788520294645
0.474668410273413
0.47466131048025
0.474794719084258
0.475066938681995
0.475434512113193
0.475847746319937
0.476282489611618
0.4767118652107
0.477066462676637
0.477255772310153
0.477246410737195
0.477058563641613
0.476678451738036
0.476162618020445
0.475585816657508
0.475050681492399
0.474691189998784
0.474593717738326
0.474861163832399
0.475593551293847
0.476866919759948
0.478780659345282
0.4813770925133
0.484557237703408
0.488003067095884
0.491243052133705
0.493843931077346
0.49552286061097
0.496213195210916
0.495535592660312
0.492991696877594
0.488075838056407
0.480093294098147
0.470457417305087
0.462195857004347
0.457495585976997
0.456429836664975
0.458226288651635
0.462831467250535
0.469614174172941
0.476808605015805
0.482881645487308
0.486565264201813
0.487038799517764
0.483047672187019
0.475215620771982
0.467362995672399
0.462873161030374
0.463085963908337
0.467854670936013
0.475954779681519
0.485153541790104
0.492000019998748
0.494805112521256
0.493481832770877
0.486227977518262
0.476548972003084
0.4722693189131
0.473200253837211
0.477046610588903
0.482882732729473
0.486336957559771
0.486632958081794
0.484679562756767
0.480902000718947
0.478375426040688
0.476729944181535
0.476430985986873
0.47740204014432
0.478908129250871
0.479980469347974
0.480518559134323
0.481025048410383
0.48218953970867
0.484623349814232
0.488537956668021
0.493489115840068
0.498414746461757
0.502028152403551
0.504043990737521
0.5049912160892
0.504205936426407
0.49925762552088
0.488018675145468
0.471558234120688
0.451973590768415
0.437120353371966
0.430948842301134
0.429473993242333
0.432558744392123
0.439636235026744
0.447095940809264
0.451774558609957
0.453697549316659
0.45286755757735
0.451286565318023
0.448115345783248
0.445337276227664
0.444807497768135
0.448972808989491
0.458431901355887
0.476693713961764
0.500720045753758
0.52071057401859
0.526893297503478
0.512490547751031
0.469344152872126
0.411980092360126
0.389611785581311
0.385321607549211
0.385939154608569
0.388663906381619
0.393887777354819
0.400571167670504
0.407197632078277
0.414055079360372
0.423110062119064
0.434250141218197
0.442976373807241
0.444636695460698
0.439378195593214
0.429589606185589
0.418890536995608
0.412178780890723
0.410885276964671
0.416656364262221
0.430283008939617
0.447118478637709
0.457936946958672
0.458152636336278
0.452621253326819
0.443244801212798
0.427154132811126
0.418299920019794
0.418987143666093
0.473984937724571
0.473978573622329
0.474140007876383
0.4744584683604
0.474932450646678
0.475484103009416
0.476037452985588
0.476498746833915
0.476829861131495
0.476994652036028
0.47701611555765
0.476931066911996
0.476812807851077
0.476678205537579
0.476565123356436
0.476521309138799
0.476592541491067
0.476799806494177
0.477144293399915
0.477583263422491
0.478066994319885
0.478556741365474
0.479018082330877
0.479387709095869
0.479583983767255
0.479581457275969
0.479400716575201
0.47902922416995
0.4785260638456
0.477966892422176
0.477450670339379
0.477093527799223
0.476974326400134
0.477201745753359
0.477882311792382
0.479076176303598
0.480862255264146
0.483284064876357
0.486232006039558
0.489435429784588
0.492546042190341
0.495192003316583
0.496999566598886
0.49774155377676
0.4969547935446
0.494337357286946
0.489454847659788
0.482108437955726
0.473286789103638
0.465226247396878
0.460296158758551
0.458874681196569
0.460488342824025
0.46488343648061
0.471354072426867
0.47815855066824
0.48379161384
0.487237205163453
0.487448456596844
0.483653585096774
0.476509844278474
0.46937853664393
0.465161521901301
0.464969118029005
0.469439655841347
0.477001448899459
0.486018762019947
0.492673149043875
0.495483063105969
0.494101761415061
0.487382366948649
0.478264597534834
0.473787577664768
0.474408287854435
0.477801513257559
0.48320861350146
0.486679786980368
0.48722055172656
0.485449368078213
0.481970581904645
0.479494086169131
0.477860511633297
0.477548121982535
0.478492304137006
0.479891873425502
0.480841819848496
0.481335554339513
0.481855884631499
0.48307047891318
0.485579842796717
0.489497732237797
0.494450142887191
0.499379439551579
0.502996616805687
0.505039272691218
0.505785324036315
0.504763804761717
0.499833896436934
0.488756076300104
0.472961449613636
0.453986687360077
0.439055913318806
0.432431722788103
0.430857436050561
0.433739283569065
0.440528155111482
0.447853714061443
0.452586953180303
0.454562874730938
0.453832797029505
0.452313006730314
0.449097244068227
0.446063420641558
0.445701140416779
0.449891745470208
0.459272165655164
0.477448285825754
0.501399648899227
0.521231521148825
0.527061091962672
0.512859428113356
0.470480327591053
0.413375017511415
0.390419902047004
0.385807478125455
0.386324687135699
0.388966778799709
0.394098280903245
0.400673805247225
0.407221702212088
0.414009796534343
0.42298546424973
0.434152744590448
0.443064784543907
0.444739479585447
0.439488493629385
0.429726416191764
0.419076676805602
0.41233277407264
0.411098860449152
0.416999945208196
0.430617058792682
0.447478596459089
0.458175545573907
0.45838429867614
0.452970353238185
0.443683533600739
0.427544759569975
0.418547045950245
0.41920745332798
0.474366428988443
0.474388325498273
0.474588710662329
0.474993581583404
0.475597989263828
0.476329486568747
0.477079340415798
0.477740055315598
0.478258718334667
0.478607622057098
0.478794124608523
0.478848709313521
0.478850770133814
0.478829475456722
0.47881547869168
0.478863031840659
0.479016980514981
0.479301371210041
0.479711402512607
0.480210427671727
0.480749784865179
0.481282603487447
0.481765410660082
0.482144961314123
0.482351699237225
0.482362957812324
0.482192653609106
0.481833311125679
0.481348235461787
0.480819701693006
0.480331027655502
0.479979304213776
0.479839134132536
0.480020709618755
0.480637030886732
0.481733340300981
0.483354624425798
0.485528658581387
0.488176982919508
0.491112802712417
0.49407232332946
0.496712865836591
0.498615175107044
0.499419150876961
0.498593635602182
0.4958936332082
0.491178235919207
0.484581402320145
0.47674942339523
0.469067241200628
0.463896956843718
0.462086962869393
0.46340449660347
0.467567458853081
0.473625379115881
0.479845834186596
0.484928306346086
0.488013046665121
0.487903420167634
0.484382468230009
0.478127136011804
0.471867566722018
0.467861228061541
0.467345050752311
0.47128733809251
0.478265720682409
0.486933797558225
0.493409428591843
0.496141595326303
0.4946274193409
0.488552337737923
0.480056679675205
0.475483683411831
0.475719983170587
0.478544639392382
0.483321521278799
0.486847132096379
0.487601963402253
0.486029863208646
0.482913047797555
0.480536329869116
0.478899674373819
0.478581964094457
0.479468982030292
0.480727635335664
0.48155038053496
0.481984098034109
0.482514512008818
0.483817945090493
0.486443998272365
0.490400833516182
0.495372212321352
0.500292235854732
0.503895626918554
0.505896117047398
0.506461208957106
0.505161438375341
0.500149587317296
0.489379152294615
0.47447504512482
0.456516950784777
0.441727979743345
0.434445822446319
0.432809617235891
0.435412300599164
0.441868982530239
0.449000977319021
0.453812041962933
0.455868709486831
0.455248813128783
0.453802336091744
0.450572752610128
0.447379349814488
0.447001582371655
0.45117154157566
0.46040674665165
0.478468881592326
0.502344191154428
0.522012292057187
0.527325841820047
0.513227266668266
0.471787528076157
0.415309231745846
0.391477859846772
0.386462634513751
0.386792038159496
0.389330043458335
0.394348733838421
0.400782690834358
0.407229424823926
0.413935884975453
0.422836193275516
0.434043782255845
0.443158175398154
0.444827582682382
0.439673899565972
0.429988510639589
0.419437106379304
0.412622291395978
0.411294799406041
0.417565555544498
0.431201555029011
0.448085884468924
0.458567936308496
0.458974613201341
0.453699252665225
0.444386899470773
0.428163377504778
0.418952024417161
0.419634573567418
0.474911381900758
0.474978291671429
0.475220959332017
0.47571216404914
0.476458570975081
0.477384662176734
0.478358943132808
0.479254890185519
0.479995077175912
0.480553356984445
0.480927940016346
0.481147699015177
0.481287309088489
0.481382193941614
0.481475354618516
0.481619849598562
0.481858364106843
0.48221079902019
0.482671161504856
0.483208071047232
0.483776645913911
0.484330322998946
0.484819975920912
0.485203440716908
0.48542120267236
0.485449401169985
0.485294118277111
0.484956328177373
0.484497146279653
0.484005294862795
0.483546396391714
0.483206682575202
0.483054567948286
0.483194016853037
0.483742208659438
0.484734622144848
0.486170995404649
0.488031682358257
0.490300904857513
0.492931621884356
0.495712490173821
0.498296209304279
0.500243374090721
0.501110576084869
0.50031602919612
0.497602641630104
0.493179489263148
0.487392240239914
0.480667041426795
0.473628367678471
0.468289142453502
0.466070942874416
0.466954277882388
0.470732725961129
0.476231287977913
0.481697675371889
0.486155143601373
0.488723701598141
0.4883495177872
0.485156519947158
0.479911763477635
0.47463413253867
0.470906470235468
0.470093661165034
0.473229592618467
0.479533481575773
0.487588121446893
0.493911825224966
0.496510181198527
0.49491328830289
0.489497440917137
0.481791213485151
0.477131977620387
0.476918559245003
0.479215974555383
0.483182883307047
0.486611069500212
0.487705548076942
0.4863804078817
0.483662562316038
0.481408362044686
0.479821915532467
0.479472992991757
0.480227921311835
0.481302042163031
0.482008165701019
0.482393915350035
0.482919547654305
0.484316138133926
0.487038814865572
0.491059573208106
0.49608272418385
0.501013162571319
0.504666984945856
0.506615980321182
0.50686551026241
0.505184064853466
0.500061337599413
0.489820452262816
0.475917333572125
0.459319866595056
0.444720988148099
0.437113839721887
0.435256901315571
0.437557255585336
0.443621103867004
0.450557716527826
0.455487274744503
0.457705143089986
0.457160276510211
0.455753094838098
0.452556517477191
0.449233921359433
0.448698397297468
0.452778285917475
0.461821595217096
0.479738221499355
0.503532237064843
0.523128942954154
0.527640779295297
0.513488016387842
0.473141938024206
0.417733112076603
0.392783409157901
0.387291651958436
0.387363013890095
0.389734879722317
0.394608197348632
0.400878810286587
0.407199159531642
0.413820763553856
0.422650654107919
0.433925463076677
0.443240084664282
0.444944128185948
0.440017811661046
0.430478394030991
0.420095947399979
0.413310544845564
0.411849064000987
0.418492211376904
0.432181744792173
0.449054711519465
0.459232035682584
0.459985001484097
0.454967591929781
0.445472770656178
0.429144695819637
0.419783339205438
0.420384502673997
0.475665729590494
0.475762543952312
0.476046184369171
0.476628189510323
0.477524342005138
0.478656815478746
0.47987748564565
0.481033987560741
0.482021040622639
0.482804667499159
0.483376453480647
0.483765062002111
0.484040844731008
0.484251412417617
0.484450536957558
0.484688243325565
0.485000318214605
0.485403172604887
0.48589017375881
0.486435003634238
0.486998862450422
0.487544481210029
0.488023213790473
0.488400497280322
0.488622993161301
0.4886682470098
0.488540241504891
0.488236781174329
0.487818961477644
0.487364279961634
0.48693862097337
0.486620791887805
0.486470722123789
0.486569240433238
0.487022059287852
0.487863115032121
0.489053384679296
0.49055581588162
0.492432110349848
0.494735282938982
0.497298388250253
0.499765185150768
0.501680407622087
0.502616189656752
0.501953629319761
0.49937648145609
0.495366804826833
0.490444498421866
0.484874141186461
0.478735226232642
0.473423541825989
0.470783096588707
0.471094907896721
0.474264474595766
0.479038182829765
0.483625407866834
0.487309534009189
0.489254177219821
0.488679722292347
0.485862251928982
0.481692142564297
0.477473727519799
0.474137382198864
0.473080973142187
0.475258611590603
0.480791934077351
0.487965491754788
0.494036736634375
0.496509965224001
0.494869657218994
0.490110753133788
0.483365382473461
0.478552836949519
0.47784648766956
0.479668418648687
0.482844518922579
0.486018312392955
0.487393065237897
0.486472049624237
0.484257337449777
0.482227744018781
0.48073917220221
0.480341140990266
0.480892083095502
0.481745791802302
0.482281359878628
0.482603397473896
0.483212008778169
0.484729433257844
0.487520663172734
0.491615059377975
0.496617352681212
0.501452175736829
0.504999552769288
0.506891485569798
0.506819881394518
0.504748444774366
0.499493284522625
0.489976759732383
0.477182433881561
0.462163194294341
0.447856331343215
0.440100507925211
0.438115531009606
0.440106695302686
0.445752552096585
0.45251154861652
0.457615750391557
0.460097900767528
0.459567343540008
0.458137912438373
0.45499481765264
0.451472167127252
0.450743230715386
0.454649057001232
0.463469229052596
0.481211422577716
0.50489680505973
0.524333095752812
0.527888728009684
0.51353794570338
0.474400581708004
0.420535165114702
0.394336893832131
0.388321824402754
0.38805336506903
0.390167546535083
0.394840488741186
0.400918915796453
0.407099688635276
0.413652770263266
0.422430845600866
0.433779294109692
0.443294923943023
0.445265360478387
0.440629229164035
0.431325069574142
0.421185708509078
0.414504209197265
0.41317280374021
0.419942080837806
0.433705867363208
0.450509051204632
0.460512519140058
0.461654103094972
0.456800270499009
0.447076548743372
0.43062759506469
0.421262015477841
0.421593823098878
0.476641595387797
0.476759388049155
0.477084192132244
0.477758750348259
0.478808656788718
0.480153054476211
0.481631462781275
0.483059578345212
0.484301782264752
0.485308660365253
0.486071930566913
0.48661947028046
0.487018632846039
0.487334260015641
0.487626093309683
0.487940227353963
0.488306332379526
0.488735426975049
0.489219535580913
0.489737524661686
0.490259840222672
0.490766547979118
0.491214426112715
0.491569207676261
0.491783300697887
0.491835353691811
0.491727310957912
0.491476798998826
0.491122272920096
0.490716864393229
0.490333517656017
0.490043683957031
0.489899661678592
0.489961805626591
0.490305351403529
0.490964848883558
0.491898444682297
0.493064398554
0.494531080571574
0.496424809321704
0.498675553778733
0.500940397251655
0.502749579761143
0.503720297982019
0.503331684758075
0.501125417724466
0.497642873775196
0.493641907015157
0.489213043202512
0.484136301197493
0.479172411403376
0.476107309844418
0.475732583281992
0.478011255015741
0.481775089592265
0.485394755306709
0.488246942791479
0.489544943358348
0.488817694385075
0.486389023182077
0.483339345203672
0.4801958379019
0.47736878252414
0.47613412916399
0.477394496269482
0.481971221183107
0.487951624808643
0.493511013297744
0.495941378725629
0.494483708134466
0.490365599486503
0.484684355406721
0.47972849466325
0.478435044342756
0.479807821202315
0.482211394277218
0.485072344903924
0.486591865398723
0.48619143554988
0.484670486228791
0.482950862450729
0.481537597803507
0.481111902871183
0.481416879330929
0.48205159450402
0.482401928934476
0.482644221740146
0.483320172824346
0.484930908853988
0.487871354165579
0.492037000773057
0.497002328352737
0.501720991824046
0.504949558264767
0.506466182261334
0.506303742313035
0.503755393544832
0.498426515905758
0.489796527394005
0.478258491379326
0.464894989456072
0.451187230264771
0.443263028425821
0.441312626866865
0.443052717612546
0.448226710101388
0.454807987997659
0.460158881103778
0.463069654176471
0.462495682261935
0.460955124903103
0.457796906825967
0.453990408672504
0.453041634894142
0.456729607471391
0.465282641527683
0.482807068750865
0.506323561459242
0.525312058407558
0.527858803359698
0.513230840077594
0.475455948074199
0.423712283057976
0.396133612667687
0.38946247361303
0.388754229138018
0.390595898714128
0.395023137062959
0.40089165186803
0.406941798946794
0.413433735156256
0.422173246933828
0.433611896943718
0.443202926903998
0.445771182255839
0.441605871772967
0.432654909912544
0.422809796662285
0.416124694892265
0.415104965340991
0.421985695184091
0.435825009259133
0.452575398890243
0.463031643834343
0.463992428778375
0.459217262044851
0.449306815154382
0.432686799448083
0.423098920341703
0.423324614463938
0.477846920606016
0.477978192670557
0.478342167994346
0.479109153916655
0.480320945711257
0.481886578980641
0.483625683924117
0.485319088464779
0.486803217232786
0.488012211392083
0.488940817503736
0.489620804598593
0.490120695218701
0.490519034402127
0.490880207004566
0.491245107941163
0.491637645737915
0.492065924159436
0.492518786045931
0.492978961564317
0.493428288448165
0.493855610281412
0.494231471935241
0.494542039124134
0.494754776290723
0.494822440022675
0.494746944424683
0.494537739115518
0.494239019635852
0.493902727517334
0.493578003579142
0.493324831202438
0.493193945618043
0.493218371559725
0.493425889174166
0.493843954621418
0.494484134529486
0.495320302501942
0.496392581751919
0.497852158253127
0.499721407966997
0.501688263909691
0.503316745576946
0.504230723480155
0.504177626647207
0.502703880160293
0.499902489061475
0.496835036641244
0.49352568289356
0.489553560716561
0.485286289988479
0.481936408725264
0.480814835415362
0.481863531159997
0.484294994563723
0.486908275251008
0.488766637355534
0.489373374010141
0.488568767396688
0.486678614890336
0.484731996708565
0.482639294194548
0.480373027688779
0.478990867941145
0.47948790040565
0.482881194165476
0.487565739952089
0.492338407697786
0.494778944836906
0.493737455989476
0.490314322042386
0.485854740090993
0.481024132619494
0.478865430095567
0.479511408146643
0.481090450693559
0.483498896548525
0.485331772297036
0.485544821620594
0.484744992746553
0.48329350532063
0.481936130241515
0.481430115295782
0.481517311104015
0.481812266006721
0.482052482474257
0.482267583358394
0.482942519444006
0.484677176357656
0.48777448949563
0.492036630465174
0.497007958317489
0.501626188974255
0.504509388057526
0.505688875131122
0.505285460132277
0.502137046897713
0.496872381573511
0.489341383606813
0.479133684721531
0.467570967666038
0.454860185976958
0.446572035379004
0.444749457021233
0.446353195623026
0.45099343989041
0.45736952678599
0.46305692200396
0.466545702335457
0.465970886371499
0.464260375073848
0.460823927597182
0.456713352043516
0.455503284597657
0.458934748740866
0.467178481467145
0.484441294864972
0.50764736213867
0.525930281509592
0.527471226780395
0.512524510896342
0.476227643908818
0.427203025837865
0.398135370947993
0.390520790799432
0.389406188790289
0.390985033415653
0.395119707121508
0.400782054792596
0.406720836064048
0.413163878241317
0.421888418005494
0.43343476776987
0.443073327576222
0.446433737978369
0.443021088303096
0.434529552624666
0.425016534069184
0.418391584128514
0.417542764962448
0.42457677344992
0.438508962137541
0.455231140998583
0.466005010599033
0.466835733923547
0.462145566558411
0.452165097799089
0.435382167092143
0.425491078321517
0.425559865652567
0.479303218703633
0.479427959898628
0.479831438228721
0.480693244826528
0.482057532940263
0.483828408596203
0.48580762477285
0.487740015730957
0.48943677176032
0.490817338851229
0.491877956322983
0.492661143375917
0.493237798655685
0.493691249912178
0.494091137227281
0.494472594139132
0.494858268751223
0.49525337776268
0.49564630506864
0.496020168820116
0.496365433428905
0.496699818284697
0.497020994188192
0.497273957679564
0.497421504297137
0.49745940995196
0.497402694077855
0.497266307923547
0.497060704272332
0.496816844396706
0.496571449895499
0.496363191113611
0.496233520087401
0.496197536298051
0.496265176511168
0.496431991861783
0.496746623367498
0.497284485875067
0.49803145253146
0.499054437691424
0.500406400620712
0.501949343852544
0.503396022625325
0.504313225801393
0.504509048998637
0.503883530921555
0.502021569876705
0.499894859542503
0.497632192038067
0.494718559194144
0.491377318695168
0.488070883666186
0.485934071677446
0.485602959889752
0.486576890683839
0.487978736665219
0.488745022160331
0.488772726113477
0.487954624911729
0.486716124607591
0.485798999762297
0.484715233100322
0.483166144515458
0.481703577186336
0.481418436196196
0.483422155730083
0.486979626924992
0.490761779272271
0.49305284840626
0.492625912904903
0.490066277778774
0.486680073570833
0.48243901432806
0.479381393946108
0.47909062546713
0.479841634247348
0.481721054659048
0.483612035605239
0.484282224211081
0.484060461428694
0.48294050558973
0.481712770652808
0.481080547756113
0.480916689567935
0.480934612100256
0.480957273989134
0.481102514625103
0.481858020923457
0.483726705942499
0.486989809568973
0.491368314278534
0.496388894475097
0.500849237578756
0.503456614814191
0.504470546700639
0.503478224148408
0.49987689999196
0.494836677939806
0.488553701149283
0.479844860341486
0.470172119277421
0.458807856279963
0.450175606291304
0.448269241415178
0.449849373770331
0.453999656197989
0.460124322170526
0.466202861377214
0.470319234668434
0.469883552425242
0.467970932577245
0.464178919898272
0.459577919535793
0.458072989743524
0.461184810968132
0.469075461225874
0.486038938867461
0.508899285753566
0.5261570891526
0.526685554659122
0.51148982477433
0.476614364342257
0.430891940133541
0.400359218385761
0.391458877811134
0.3899705475233
0.39130813792389
0.395141818247113
0.400616121230634
0.406433923508703
0.412845545191125
0.42158167514668
0.433304960192423
0.443393967413241
0.447508830353875
0.444970501884441
0.436908596436688
0.427733182676764
0.421300302103294
0.420452723168786
0.427603430647852
0.441593774703618
0.458303613238236
0.46916477423525
0.470002119704238
0.46544792331131
0.455524002762489
0.438630414196608
0.428477948291938
0.428260890581405
0.481013634157614
0.481172448472108
0.481616423600459
0.482559316664502
0.484062584329461
0.486017978966872
0.488199431004471
0.490322109153485
0.492176943241402
0.493671174234998
0.494814617849296
0.495659247137885
0.496272671735879
0.496735664623432
0.497123968669766
0.497488058719123
0.497851422931788
0.498192015239632
0.498512830974724
0.498796299565214
0.499045868518798
0.499255968283211
0.499433754375651
0.499580864962672
0.499679008020389
0.499712615082618
0.49969149027717
0.499624746140043
0.499511715172571
0.499367729293505
0.499207574240329
0.499038080187699
0.498880738462658
0.498741695132548
0.498659497620931
0.498639508477178
0.498700828676107
0.498958969240195
0.499369931754424
0.499889008762803
0.500658773260745
0.501669110674277
0.502792504288395
0.503799220571382
0.504375943189661
0.504486977289238
0.503849860798003
0.502608365499771
0.501270179232496
0.499497992753074
0.497050150661515
0.494067386330473
0.491163798114266
0.489145836433507
0.488571493542611
0.488575015517183
0.488308023969329
0.487753396297055
0.487066818344479
0.486572065377538
0.486556484071033
0.486395788862806
0.485750321594873
0.484409820436263
0.483177702642602
0.483597985870179
0.485954596826969
0.488672641207628
0.490730148543908
0.49108374691412
0.489560167930649
0.487021019736593
0.483491870916632
0.479921788426003
0.478586481190707
0.478665682499415
0.479759091077037
0.481233023881546
0.482169695564333
0.482415702764868
0.481653325689449
0.480608593966291
0.479887706464611
0.479505744233395
0.479235451627442
0.479099044616155
0.479246131024154
0.480075440573561
0.482103946514457
0.485491697329764
0.489988471069403
0.495061861423125
0.499248256872315
0.501578236145365
0.502446610822302
0.501045874899676
0.49714458658653
0.492312730385309
0.487328373685577
0.480445245166412
0.472544643738644
0.462820505193736
0.454325007568709
0.45182337516879
0.453413246696589
0.457147509061602
0.462964991952396
0.469427522852387
0.474149488233856
0.474051564525831
0.471911977691345
0.467744116556708
0.462549026537686
0.46069652165113
0.463436615353404
0.470933857035067
0.487525893069618
0.509950166433412
0.52584946175927
0.525393682723214
0.510034177171434
0.476601212759389
0.434618252536563
0.402993521397124
0.392410877110782
0.390472863554337
0.391555171842408
0.395097079411682
0.400370734055806
0.406067016416185
0.412481095294172
0.421265818701656
0.433306222011012
0.444127782199016
0.449127637125217
0.447408971620097
0.439698746369203
0.430860395811024