/*--------------------------------*- C++ -*----------------------------------*\
  =========                 |
  \\      /  F ield         | OpenFOAM: The Open Source CFD Toolbox
   \\    /   O peration     | Website:  https://openfoam.org
    \\  /    A nd           | Version:  12
     \\/     M anipulation  |
\*---------------------------------------------------------------------------*/
FoamFile
{
    format      ascii;
    class       volScalarField;
    location    "0.0159";
    object      T;
}
// * * * * * * * * * * * * * * * * * * * * * * * * * * * * * * * * * * * * * //

dimensions      [0 0 0 1 0 0 0];

internalField   nonuniform List<scalar> 
54000
(
109.810134187496
109.784090324363
109.754774921294
109.698606108216
109.628718599098
109.544000179246
109.465105925929
109.397858298551
109.344319078721
109.302282710175
109.26708725596
109.235311993417
109.211991560941
109.188442566643
109.164301347821
109.137341692107
109.108798182238
109.080667230557
109.046801148829
109.001254581909
108.945685206678
108.888051759081
108.832279313359
108.777255614484
108.722138617499
108.667724569542
108.618220034463
108.576461929761
108.54864043966
108.53813805258
108.555699068536
108.609466011102
108.69646242031
108.821807367001
108.994426050077
109.224619999061
109.51790440589
109.874235320915
110.283274183492
110.721429705765
111.130254362966
111.447446088144
111.676143370482
111.818035828902
111.870900555286
111.758625688503
111.41001021212
110.702731270583
109.816458841728
109.119291502458
108.801740274564
108.817450531415
109.062311534059
109.532972800677
110.185390055318
110.832534619599
111.3207940618
111.543774065125
111.448564033848
110.896863861276
109.949147252016
108.972539524203
108.419346301101
108.42107717328
108.797326600738
109.584205578419
110.442089899251
111.035986429889
111.266757885717
111.089940382276
110.345548669189
109.303742310184
108.898818323724
108.90443614393
109.165710409096
109.575229262873
109.777521220331
109.691190332628
109.396318901203
108.950347526102
108.651356235305
108.454559459105
108.384833146103
108.439579820747
108.560309523474
108.656659715504
108.705225766338
108.756007110193
108.871625838007
109.110904802672
109.492034475486
109.980039041157
110.505646123484
110.975661018843
111.318794364237
111.619791110708
111.824378982261
111.641424765085
110.931929677747
109.643734722308
108.021929521719
106.888161729313
106.4749302438
106.584527625129
107.229000367962
108.20575601633
109.167041657174
109.814094128678
110.167358636114
110.272002617226
110.331382127641
110.190449648728
109.997166785445
110.02073683758
110.463431399725
111.25783851295
112.851218769809
114.974612424347
116.689320696466
117.370173437513
116.358250484351
112.26443020613
105.928562927045
103.312619221734
102.921441442166
103.12364208481
103.935796548846
105.793224917483
108.815097349539
112.694467910583
116.821368542523
120.542235567673
123.295485878871
124.735814542528
125.043515768162
124.339922796822
122.763041699923
121.204490949389
120.32327376424
120.379581631491
121.483639210094
123.460980831875
125.686597709145
127.100126573635
127.533084806665
127.358231844165
126.664621217469
124.623846260279
123.233085029997
122.93793974264
109.788915660491
109.76233761084
109.727092009203
109.664029450524
109.581507464115
109.482337015195
109.386268248666
109.302592283721
109.23415784998
109.180124874239
109.137879947497
109.10181925501
109.07387349971
109.046181803782
109.015806090702
108.981645380832
108.946124903124
108.905591909315
108.853681567513
108.792147179766
108.725478682761
108.659698249858
108.597953194161
108.538662567165
108.481046542629
108.426304665577
108.378417051636
108.339822219912
108.316208437795
108.310492766448
108.33054568935
108.383165432715
108.470236339469
108.597707758452
108.769978218112
108.996044258556
109.283370111553
109.632082554585
110.033189199493
110.45892811355
110.859237845482
111.187543283553
111.429347719916
111.582052822505
111.626840392903
111.513319680562
111.181992392115
110.519233583207
109.687699661959
109.013973358589
108.686070741951
108.687047810904
108.928208103117
109.396982874713
110.037545532338
110.668551951023
111.143465906975
111.364178642885
111.274948729828
110.708129718193
109.797690704388
108.86855622068
108.326450523806
108.285946122679
108.665883491972
109.426112524262
110.272222801522
110.879723323867
111.097520879114
110.929750874936
110.199397150454
109.188599895826
108.755559112761
108.73811281724
108.981868009041
109.4083668605
109.614367325711
109.523672536141
109.237902239222
108.803975993795
108.509839863049
108.31707862319
108.25331435404
108.309754031651
108.430280082164
108.522467172719
108.569303920234
108.619815413251
108.738847044808
108.985922279595
109.381014148372
109.881910867849
110.404983617749
110.846999434069
111.169480142599
111.444083112935
111.62272513864
111.430497206997
110.727490161466
109.495035568752
107.929411105246
106.829183121442
106.46517466512
106.584974107337
107.216739094907
108.19573703627
109.158055970576
109.807074585029
110.160756128332
110.266274173662
110.319059023829
110.170488828985
109.96506011044
109.960632840208
110.392004720143
111.178462366937
112.772595892853
114.896027348766
116.6148291895
117.278113996841
116.224735181326
112.147432528529
105.886834464473
103.275684124621
102.895478536421
103.084660345702
103.900834253456
105.779392548748
108.809349949619
112.689469275108
116.8142266286
120.525982454724
123.277783908195
124.725061756831
125.027221690147
124.332457086793
122.75791152914
121.192613240464
120.297204152881
120.350989240772
121.467157609998
123.43492084146
125.65402903943
127.065699210119
127.501322928491
127.321005594948
126.610865799045
124.576912748929
123.199066281136
122.93849038814
109.73453870594
109.710988809499
109.67167687973
109.599329847005
109.499008544636
109.377350461001
109.254947301906
109.145920181271
109.057342519268
108.987296031163
108.932137599785
108.8867722257
108.849577093004
108.812149341487
108.771224125439
108.72511444252
108.675936968865
108.619108853312
108.549855961658
108.473088800029
108.394451702201
108.319827655636
108.252401174381
108.189901206691
108.130817309344
108.07659461296
108.03135697541
107.997334739087
107.978912583826
107.978556906175
108.002726618833
108.05800156421
108.147699226315
108.275151206266
108.444677723318
108.664320966332
108.941491468251
109.277599816749
109.662160403473
110.067109039605
110.452877264672
110.783574030888
111.036347998671
111.192014697356
111.23736658949
111.138066787517
110.819215015573
110.22120299255
109.467432273133
108.826255031924
108.487702891855
108.4762176757
108.71928376893
109.181462982891
109.799002965011
110.402706027819
110.845640794295
111.057988777155
110.943392351153
110.398135821281
109.54377450707
108.682195744224
108.158437893416
108.086780417322
108.461934005508
109.177819246103
109.997488846544
110.597425887992
110.815246747357
110.669003392249
109.951265625895
108.99860943096
108.538810059694
108.512224495639
108.73934653895
109.163516109531
109.372915494275
109.298056805211
109.029877268207
108.619713662086
108.333727447622
108.146576534659
108.09188440383
108.154596550767
108.272775700285
108.358770724999
108.402828720315
108.452091763738
108.572734720685
108.823579700243
109.224668759482
109.733555434664
110.251431114764
110.663533074817
110.962536498662
111.196697352538
111.328984216887
111.120992408885
110.418711926624
109.259251046069
107.779511085093
106.727612134974
106.414712214604
106.543627230251
107.180168546702
108.16241223745
109.126853562367
109.784291256517
110.138282396845
110.242105856745
110.289392295324
110.120293615019
109.900084576563
109.864579771033
110.270545083944
111.049069231755
112.644991689062
114.768120531588
116.482986074451
117.1159604162
115.997777202908
111.951658279692
105.828130925655
103.225899436801
102.849692859196
103.026390747779
103.849596432813
105.75126840032
108.796255535605
112.683109229232
116.807178674266
120.506261761099
123.251719549785
124.706017852376
124.999501310699
124.31205025066
122.739177737131
121.168989745155
120.261090781152
120.303401516643
121.426955734129
123.382338251829
125.598094951967
127.00705767975
127.445724984412
127.248802925082
126.51052799478
124.495312444658
123.154735618514
122.939178103942
109.647130819289
109.629327340671
109.585796995665
109.501783038158
109.379346366604
109.229334612558
109.073996395138
108.932317735698
108.815970670116
108.723662773866
108.649553751433
108.588155922892
108.536603203036
108.485229274812
108.429393574
108.368780787395
108.302942012873
108.227187799981
108.141608672485
108.050604270643
107.960762422153
107.878863697815
107.807872921982
107.744419316448
107.685866113957
107.634178839783
107.593337583805
107.565016782734
107.552035930306
107.557553911941
107.587745154382
107.646491202367
107.736735628394
107.8617909542
108.026346925795
108.236991147378
108.49960671548
108.815880902951
109.174585976849
109.552407951372
109.921492543982
110.25223107386
110.515755180228
110.680783024285
110.728319167221
110.637315060239
110.337693228303
109.817360586649
109.16074789657
108.560838740186
108.221278658231
108.191937101619
108.427769048586
108.874752229894
109.459559149739
110.021905833565
110.42238213504
110.616135948717
110.487356271034
109.97206124587
109.192943614417
108.413234094449
107.925518314857
107.828943961619
108.180284890254
108.841186194858
109.62886487758
110.204795365435
110.433459556817
110.285807607869
109.629764586527
108.741496653973
108.274994600679
108.249663022542
108.465873475386
108.877808543754
109.106704448193
109.056799751575
108.811179063827
108.442641629719
108.173118075597
107.994299707352
107.946551002415
108.011927688858
108.124611849808
108.203420302879
108.245454150895
108.294403391176
108.41364203848
108.661574347975
109.054079679587
109.55623435806
110.062369209062
110.453624055001
110.72733539033
110.916196723955
110.995950895299
110.761392525975
110.053279019425
108.961094664769
107.580084379339
106.583149860176
106.295378972716
106.454124028296
107.102326506859
108.082714167045
109.052401863061
109.725497946813
110.081172466381
110.176233323491
110.205995678342
110.016012657881
109.766687963821
109.720885900767
110.085059152334
110.855674782685
112.454758870459
114.576796691944
116.280909376753
116.858722258598
115.675654233616
111.706953806997
105.764970499983
103.160531554466
102.777391621383
102.947393137752
103.782047433217
105.707977697239
108.773644022118
112.674275553427
116.797151228694
120.478905164326
123.215323469184
124.675174009679
124.958753651597
124.270891147991
122.697917862878
121.130858389033
120.218804123606
120.232280458019
121.347665579811
123.289522785715
125.504916984146
126.912198199031
127.335637997407
127.119867301696
126.345066725779
124.37421108242
123.097033696008
122.929251074274
109.530389721401
109.513673622815
109.465655869457
109.368144230668
109.220688106269
109.037376062839
108.843098390841
108.661989551012
108.509495518276
108.387470967949
108.289713234628
108.207459645749
108.136187270938
108.067725936881
107.996191949508
107.920053240529
107.836596730261
107.743819969823
107.643611313812
107.540514494123
107.442448865945
107.357077376217
107.286049740397
107.224871690362
107.170199993125
107.124233458587
107.089968980688
107.068462417041
107.061935141562
107.074462922713
107.110467917904
107.171232728448
107.259795729212
107.379845209337
107.53635861418
107.734404076814
107.977292446822
108.265554769747
108.591118620442
108.938778764151
109.289183740357
109.616579241123
109.889509293715
110.064796707965
110.116720880587
110.029027433685
109.759117346753
109.326072641355
108.783121580908
108.242522844868
107.90441746603
107.851224198548
108.065026820545
108.492750776242
109.035688208062
109.541062723594
109.893229773004
110.058569802007
109.918997161072
109.447006624613
108.769079381592
108.094189057091
107.648367045606
107.541246632649
107.858547561522
108.465507100031
109.21552711755
109.778150597322
110.009254850059
109.859408766186
109.283061150866
108.469635340953
108.005940085025
107.983565373221
108.185024819455
108.56275763861
108.829478144329
108.827108641953
108.61907896233
108.308796084035
108.070395155352
107.910197274658
107.860036943602
107.922590378208
108.02557483106
108.095641569419
108.135061686967
108.185302346731
108.30665010468
108.550235261067
108.921878375084
109.39689954688
109.873365928893
110.242672482083
110.486220907918
110.640694331303
110.658265857595
110.397775232846
109.671603102168
108.638095393193
107.360514240804
106.414154565694
106.12200854804
106.318141063866
106.980302295743
107.953174241343
108.921904195145
109.609005503881
109.976084177362
110.050314232838
110.055570041662
109.84487201753
109.557399127879
109.503696532993
109.832082221711
110.59595133869
112.198291447906
114.317520032808
116.015128861771
116.50639931348
115.262601445666
111.430463023787
105.704791013643
103.07769811993
102.671641443644
102.84836216219
103.702168508437
105.65544592608
108.746385311131
112.663888665221
116.784917661199
120.444741310316
123.165853323724
124.628293667737
124.891369811133
124.193150943712
122.615056440448
121.059811905431
120.157011014382
120.116799062646
121.208491232095
123.126169476534
125.345728963336
126.759640832758
127.156382149884
126.89468547292
126.085999357121
124.190928025443
122.997508953414
122.875637871435
109.376118289146
109.361712488093
109.308600043169
109.196147466126
109.021366288552
108.800619028949
108.562647333483
108.33679246517
108.142387451048
107.984996564468
107.858240847099
107.752077231912
107.660124365748
107.573660486979
107.486644071923
107.395496723254
107.297373412265
107.191670846812
107.080659620757
106.969946787839
106.868876310238
106.78514302144
106.718272601043
106.662970625925
106.615807497141
106.578886521068
106.553651623424
106.540056453467
106.540792377277
106.560321928068
106.600276833502
106.661726831286
106.747374509633
106.860612132626
107.006731891844
107.189762264878
107.409656226845
107.663207501705
107.948176404754
108.261920903659
108.590350315915
108.908560401934
109.18474332794
109.368063985297
109.427723039015
109.347160093067
109.116348842446
108.773073359219
108.35068019061
107.89047507774
107.558682631406
107.478895421921
107.656712457784
108.052026110946
108.542031133604
108.980458205925
109.287346095417
109.419689001744
109.2764004851
108.861730675164
108.3041176852
107.751455906047
107.361288665779
107.256754685111
107.529568679647
108.091077944586
108.799025698247
109.367302669224
109.597381076869
109.451455693217
108.968043231934
108.252878924199
107.786223250437
107.749133103514
107.932144587282
108.252702513547
108.542394703789
108.618435929192
108.480272878376
108.234926842989
108.030957825951
107.879006965316
107.833421044491
107.891485516643
107.987483263287
108.052467823854
108.090254341076
108.139459317307
108.262635378072
108.504206780632
108.860026987775
109.304655243788
109.742785434145
110.081864789553
110.293500816734
110.382511316385
110.324968947018
110.028261534771
109.313556433328
108.334165074979
107.16150571945
106.242527428048
105.933212987207
106.152735719272
106.82027611056
107.773541433941
108.733005231811
109.431029602582
109.80178437021
109.860499253823
109.840838895756
109.607148231309
109.286036877906
109.206235435918
109.514345141672
110.275471498682
111.879468563997
113.992680294932
115.711554244238
116.072470280991
114.789756233992
111.139172454908
105.657585307343
102.983156059502
102.530384585193
102.728301047185
103.614225849095
105.599674660935
108.720874688836
112.655306702051
116.77138537354
120.402534976509
123.099862833435
124.561218146156
124.794192928631
124.058538387294
122.461822002015
120.924884305502
120.052677120486
119.957244317518
120.983666750487
122.860396559806
125.07350392085
126.517641415393
126.825367435419
126.520374135855
125.70824676161
123.911796281057
122.828388665413
122.743236691701
109.184653284788
109.170871941976
109.111885490388
108.983535743473
108.779742271513
108.518762011839
108.234084743493
107.960325049077
107.72104655296
107.52526241472
107.36736932113
107.23672355806
107.124735476534
107.022061908642
106.922046038779
106.819826647378
106.712477474368
106.599761525324
106.484377276701
106.373187123376
106.275962248587
106.19938877055
106.140928936365
106.095091947168
106.05891857035
106.034334958783
106.021073019855
106.016955867238
106.026064538504
106.05146859879
106.093802628899
106.155030122175
106.237044830359
106.341603153338
106.473183411008
106.635497724016
106.825852548472
107.040216469023
107.2831845375
107.560414110706
107.861450777501
108.161328421706
108.428793872988
108.616713664017
108.690418991055
108.628132832678
108.443935400868
108.189382312907
107.884736348763
107.522414337304
107.213106671549
107.10398807996
107.236266281859
107.584342255483
108.011414361554
108.380830866735
108.64267800878
108.743469159551
108.605307343477
108.263750466874
107.837601325137
107.417019753035
107.095281152295
107.003296818362
107.230092184861
107.756349633071
108.416976324998
108.981465428171
109.213631481078
109.090821306663
108.708805884212
108.123078232133
107.674956882511
107.588934754786
107.743207846886
108.008847100785
108.296683690942
108.444108346733
108.391009839402
108.209595094864
108.028983952307
107.896373002545
107.858371139607
107.907321965064
107.997149341265
108.055783497994
108.09059844001
108.14505901357
108.272954643711
108.507039931065
108.855121510229
109.281723564654
109.693523544442
109.984543622585
110.135813803057
110.151006651312
110.01349280995
109.66855691848
108.992800453452
108.076825149575
107.018163901847
106.100366097479
105.746804504858
105.975045174767
106.635821443434
107.55671580068
108.496727714386
109.203055778034
109.578509332817
109.619493052355
109.574633784275
109.316983366206
108.962786886222
108.853239967112
109.149137944677
109.909705029136
111.512940754857
113.618926914193
115.341267308969
115.584603048127
114.286936180169
110.833222311716
105.630347384531
102.887643648373
102.367578407165
102.590362132089
103.523996615153
105.546301306603
108.699219518149
112.651441478399
116.757556653331
120.352014196976
123.008529627067
124.468973580016
124.66241677745
123.840701276428
122.201975492819
120.680842599413
119.824309004191
119.687139886401
120.64312001938
122.461434567174
124.635432288882
126.109940851256
126.288164899373
125.987490240376
125.191219154661
123.495751337025
122.50890105163
122.503981384001
108.954367780782
108.94010754933
108.874625956623
108.729540953112
108.495642840023
108.192856607437
107.860252729193
107.53779347546
107.253460615999
107.019399182102
106.831746328935
106.679157414693
106.550723194831
106.436511723883
106.328854044973
106.222091359594
106.113010116596
106.001242578862
105.890031282078
105.786907672864
105.700659968644
105.636415138141
105.590352732662
105.557423802738
105.535199533935
105.52504733454
105.524156888488
105.532082639425
105.551378484167
105.581888792096
105.626125531374
105.686120989668
105.763156063643
105.857857947603
105.972446396464
106.110432891907
106.26948225144
106.44595950774
106.645284500652
106.878896198333
107.143883845198
107.416870873212
107.663735863317
107.846152069646
107.936008666936
107.907030793228
107.775832866239
107.60700540919
107.410674679944
107.154602656605
106.893332295839
106.754718271708
106.836384765162
107.12052903535
107.470662629192
107.775658675678
107.998329242484
108.070689001004
107.952663092329
107.699482639961
107.414784721536
107.132298173752
106.897092258882
106.821586860516
106.990875860142
107.471581304895
108.058788292027
108.60559605168
108.85714617925
108.785757606039
108.505343574883
108.065070744453
107.63893472498
107.527966810194
107.642606301437
107.863998692964
108.150207297146
108.333097753387
108.345924135435
108.229120392662
108.079800466534
107.964942143876
107.946370589514
107.998860543691
108.072117656184
108.116858921316
108.147299389463
108.203667923094
108.338323536103
108.578992266888
108.92248718369
109.33329257767
109.717188322402
109.959015236577
110.052056721515
109.987421229359
109.749290541418
109.346884922887
108.708965397579
107.87020316499
106.929604924907
106.028082149612
105.59649165254
105.801752946379
106.445487943515
107.320492451878
108.230583200245
108.944606597959
109.338849080538
109.356008651041
109.281740595277
108.998738306299
108.611381781139
108.477596539789
108.765680370292
109.522413026039
111.120290811026
113.218401645003
114.888973373451
115.06575397355
113.768496485545
110.515681808229
105.621988491643
102.810840581585
102.200519755918
102.449548471982
103.438888002589
105.502639301594
108.686639526516
112.653103783112
116.745113263176
120.291666797023
122.883991811003
124.339487591785
124.478403065068
123.507957909167
121.802369356893
120.287508236562
119.413368086827
119.277254363152
120.16230532551
121.907125971628
124.012501177142
125.377837813077
125.582330047881
125.309434685273
124.536678501913
122.932816435031
122.037332218973
122.140809159023
108.684519337014
108.668884593759
108.596258850771
108.433868327527
108.170172822609
107.826439762557
107.447132927894
107.077771512887
106.751164066504
106.482512545649
106.269709572714
106.100742762912
105.962474717872
105.843894210252
105.736374750932
105.633394525603
105.531288865753
105.429733377772
105.332049033573
105.245385486807
105.176493783426
105.127985539811
105.096225409726
105.079183611123
105.074591920599
105.08038847826
105.09448328686
105.114016106199
105.141472959837
105.177986784479
105.224708930206
105.283105228882
105.354418364511
105.43807220673
105.532917175769
105.641257269525
105.765541015835
105.904054193716
106.060483686776
106.248424524619
106.472768898687
106.714402574334
106.935042757907
107.102460599865
107.200178495946
107.214933960695
107.144424008459
107.055212257077
106.957177876118
106.80445561702
106.614932591154
106.469686095509
106.495221024528
106.688102672616
106.953404007583
107.202312556808
107.377096502633
107.421439580812
107.348935460502
107.203217689993
107.06697930877
106.929654658203
106.802611626213
106.745901304517
106.84912286797
107.237883809325
107.745740189634
108.263515130544
108.54877189253
108.544892201502
108.358596313861
108.05021306776
107.687523746469
107.531084659366
107.617185205742
107.813334636346
108.088160738797
108.293439218071
108.3519933874
108.31692874089
108.23119934926
108.152641333485
108.147546793168
108.193231480019
108.249666246945
108.288668405483
108.319047735391
108.38213254373
108.524065877354
108.770087039414
109.10229407727
109.484603517389
109.828058666817
110.024229970726
110.0636633862
109.923840081166
109.559956411532
109.078729157915
108.474666409863
107.706852070249
106.884720384036
106.02248869934
105.529123343341
105.67379227836
106.262623507872
107.08088653449
107.953010728664
108.677286674203
109.105324627012
109.104506896255
108.997550548257
108.674145273953
108.259277594476
108.110177899926
108.392016257205
109.139867927031
110.727487457553
112.813015991074
114.426223145531
114.541449631728
113.259414793109
110.193930209092
105.641958264579
102.768737414634
102.072439624891
102.332372049429
103.3693138316
105.47364961905
108.683843379001
112.660791304666
116.736090593185
120.221302250556
122.719592868242
124.121081374921
124.184435703069
123.029401827044
121.247062996982
119.734538935437
118.831766260207
118.704813742006
119.537008872856
121.206578072512
123.229075017299
124.52543784177
124.759985463332
124.516357273606
123.777114301028
122.258759797954
121.454296135593
121.65764757366
108.377270695037
108.358362390894
108.278345771696
108.09885263988
107.805487581004
107.422030459952
106.998935515315
106.587381602118
106.22512992357
105.930093236038
105.70095740868
105.524838288458
105.386151861219
105.27217553906
105.173612057812
105.082951770418
104.996354900472
104.913542099081
104.837603767172
104.773987287144
104.727058019702
104.69875415662
104.687438600291
104.687521808929
104.696781353927
104.715447040608
104.741591505656
104.773802247118
104.811609184669
104.855376318104
104.905653105782
104.962595696513
105.026521287264
105.096626245088
105.171481119129
105.250042473504
105.337551906213
105.440787138507
105.559537692412
105.701177605434
105.873460501931
106.064506438661
106.255820145618
106.416138286389
106.526016469379
106.58355947898
106.579557993487
106.567070293473
106.554843465182
106.495865286251
106.394328889879
106.276566582651
106.22319558568
106.3090259946
106.490692743933
106.679480910058
106.796797628095
106.837336390351
106.825577799629
106.794430759449
106.802696128968
106.809149073925
106.779900909608
106.739697271537
106.806063504713
107.086481347397
107.523236485375
107.989344956233
108.299915038953
108.376819601238
108.286370499299
108.080879109085
107.810627030218
107.616754136576
107.66774326623
107.838384371079
108.10086236761
108.337383925661
108.46287166568
108.518025815778
108.504652515925
108.47888431821
108.49353909687
108.542652510561
108.599182266335
108.644310517402
108.683391630236
108.756274425495
108.900721165933
109.141948576994
109.453662796466
109.801855856585
110.089668862438
110.213773554706
110.169549995881
109.931634933094
109.46283232677
108.890776658797
108.305081454182
107.592612172063
106.87230605086
106.075691425938
105.534443970865
105.608754948554
106.106591015499
106.853741724979
107.682231500796
108.419780011549
108.88859319016
108.890324763746
108.751271571615
108.38794280306
107.928458385002
107.774283941015
108.050502755419
108.785433624411
110.35851733849
112.432131715853
113.965353132419
114.028712925004
112.781030543811
109.878238963474
105.705974334834
102.788108979477
102.000764027431
102.25729482735
103.325329615141
105.461982315591
108.692261031533
112.680755409739
116.73315716753
120.137339502754
122.500684144932
123.813929543441
123.731704516976
122.395616025048
120.545990925532
119.043869211706
118.141724064912
118.004961651614
118.796765575828
120.39930790575
122.345301366147
123.626705728431
123.869175100357
123.653903742049
122.961942088953
121.525095460882
120.8111328484
121.075990886162
108.034956113868
108.016424127955
107.929167186985
107.732128820574
107.410735653673
106.9914891296
106.530237595476
106.08423018902
105.695993577826
105.385177390903
105.150845646122
104.978159462109
104.848539230427
104.747338392514
104.664837933548
104.594229032385
104.531645614652
104.475315270204
104.429364210855
104.395574930351
104.376495664597
104.369965272478
104.374054159095
104.38922635455
104.412821369749
104.442662492042
104.478740641935
104.520554780092
104.566526553228
104.61637455022
104.669547980924
104.723815286956
104.778292137871
104.831556052228
104.885529465601
104.940580448198
104.99868663871
105.069491999063
105.150612142412
105.240142236746
105.35154296676
105.482989167327
105.635568356199
105.793820031903
105.93176666442
106.037669805234
106.111989277984
106.165808899453
106.226347779558
106.262854483038
106.248456231839
106.17550835573
106.076601226559
106.028495919504
106.106482323648
106.225280528858
106.296374945846
106.352868572417
106.403528335544
106.481444035577
106.617026696885
106.750328942728
106.814233819886
106.819841613507
106.853996047305
107.032902825373
107.394562098674
107.787545951487
108.119477268075
108.289696724346
108.285073284656
108.206913495398
108.028842104432
107.838260221052
107.837401692179
107.993072012752
108.250597884534
108.52575683659
108.742795622569
108.884217168114
108.938801869148
108.975489985464
109.027369477411
109.092707998053
109.148309633356
109.197380755288
109.249586269502
109.332234180829
109.48620270529
109.723692914842
110.019363323084
110.330595799682
110.537055072823
110.559061308752
110.403605910978
110.021501113301
109.445826640699
108.802678517123
108.211892046287
107.541285905937
106.900074221077
106.189081554375
105.61561403692
105.597500181317
106.01079054407
106.659984835886
107.435440356437
108.190040535014
108.70053343726
108.743065076691
108.578478979423
108.178368206052
107.666846493196
107.491947708414
107.757663490753
108.477219549989
110.028874385396
112.084991487223
113.5015668048
113.532776007602
112.332766646187
109.583001836321
105.818839850267
102.886139148966
101.984272136289
102.222980097436
103.308372237312
105.461947348241
108.715488955488
112.72067834315
116.737042782496
120.03035012642
122.222297816739
123.332031646244
123.108869882742
121.629637025829
119.737542799722
118.261602129802
117.379130500441
117.229345569244
117.99217914467
119.540178379014
121.427096833097
122.70359394413
122.955687978032
122.769534892505
122.137035746055
120.776974027632
120.129895003415
120.420505152173
107.659922120065
107.637503601741
107.54354649946
107.330810457279
106.985123709266
106.537207991641
106.048252369725
105.581242995507
105.182096161898
104.871102810537
104.645674549482
104.488891247084
104.379742782609
104.301800583805
104.244549733993
104.199506321965
104.164310389268
104.139493892748
104.127278272068
104.12510488611
104.131415091796
104.146920390503
104.169443422364
104.197784091351
104.230745656381
104.267665443421
104.309004760855
104.355424756998
104.404952329456
104.456422772554
104.508999551164
104.559364033882
104.604895006439
104.647653696932
104.685616842573
104.719296965658
104.74970073564
104.781957138044
104.823838731781
104.869805997009
104.929313828791
105.010311842524
105.117111458867
105.257481176909
105.423314853535
105.589551494024
105.740406125785
105.866746011867
105.990486491631
106.105658347108
106.173616184636
106.149630507991
106.025648552407
105.887620452115
105.843864288581
105.87411344243
105.902381842218
105.96664608604
106.084550195674
106.265879883371
106.501434049917
106.732451448094
106.893693284815
106.974304309101
106.985092545919
107.078454066031
107.363040528155
107.690412794466
108.025179421794
108.270964436615
108.388363646654
108.441035641859
108.383079085592
108.238105173792
108.191157464827
108.32996642652
108.587628111621
108.900878507645
109.189404033109
109.412567217208
109.5359911497
109.633473008482
109.713065808369
109.785857460535
109.837453157077
109.885985789481
109.950853249158
110.051235092567