/*--------------------------------*- C++ -*----------------------------------*\
  =========                 |
  \\      /  F ield         | OpenFOAM: The Open Source CFD Toolbox
   \\    /   O peration     | Website:  https://openfoam.org
    \\  /    A nd           | Version:  12
     \\/     M anipulation  |
\*---------------------------------------------------------------------------*/
FoamFile
{
    format      ascii;
    class       volVectorField;
    location    "0.0159";
    object      U;
}
// * * * * * * * * * * * * * * * * * * * * * * * * * * * * * * * * * * * * * //

dimensions      [0 1 -1 0 0 0 0];

internalField   nonuniform List<vector> 
54000
(
(-0.0742397365501734 -0.193189522460275 5.93547574035852e-05)
(-0.0246167493351227 -0.198304028218972 0.000164404694275313)
(-0.0052140523153999 -0.233629200544819 0.000329202327217076)
(0.0856292326624723 -0.266272696230418 0.000419598167193551)
(0.208020785917937 -0.307445767636674 0.000574996687906671)
(0.344575355268218 -0.32123136120654 0.000604720974674289)
(0.470612906119495 -0.338226844823812 0.000512921754525658)
(0.593065706345513 -0.355429568841731 0.000396462841918574)
(0.70100877299001 -0.371568331360262 0.000277076750935378)
(0.777541766820147 -0.395782265793566 0.000177031224831267)
(0.807340128176137 -0.405617641317892 0.00012156600268282)
(0.801364238734043 -0.41227533616583 8.91354688935217e-05)
(0.772443673829093 -0.415911212545101 6.23482591885437e-05)
(0.719298036680513 -0.410089777199141 3.43638548514392e-05)
(0.640774039836634 -0.408563609388726 2.1781762408773e-05)
(0.546541909533769 -0.407344476582461 1.67125381887847e-05)
(0.460681217006745 -0.40284025416382 1.62449927268379e-05)
(0.386265951281072 -0.399148874227368 1.73231858581876e-05)
(0.287071042025632 -0.397227607424851 1.89957763846003e-05)
(0.172153676565246 -0.394925047479642 2.04023818086482e-05)
(0.0571367023330274 -0.386129863064952 2.17227742945853e-05)
(-0.0368396582777657 -0.36997621708002 2.26912254561173e-05)
(-0.0962632271473527 -0.344799168082086 2.29460374837187e-05)
(-0.134277687197815 -0.316517266097517 2.29876930096872e-05)
(-0.15342042135635 -0.286254181847814 2.23386370157951e-05)
(-0.184516919260764 -0.250496945498908 2.12218395088104e-05)
(-0.21654034883954 -0.212672750921804 2.02434159625306e-05)
(-0.250219824844334 -0.170277997013841 1.88881735883116e-05)
(-0.31055660636518 -0.123996735659004 1.77959212210954e-05)
(-0.387796653900118 -0.0683219837216456 1.70617246669192e-05)
(-0.472361090649402 0.006176662749392 1.61654473619895e-05)
(-0.537340639441589 0.0879300541782724 1.53390156845748e-05)
(-0.564096865406919 0.178324172221655 1.47990893174807e-05)
(-0.545449736129988 0.266559164843132 1.43536555353322e-05)
(-0.415425401004028 0.357954374583585 1.39218250236457e-05)
(-0.123246318014349 0.447024181348519 1.34779561464938e-05)
(0.384587631224164 0.512904876799636 1.31199712704434e-05)
(1.15007992079453 0.548750180348185 1.27717668519694e-05)
(2.18491934654887 0.538649317639828 1.23967684274813e-05)
(3.43840051658704 0.457276466316003 1.19145411528507e-05)
(4.7326373912856 0.266616019452832 1.14481571941518e-05)
(5.85460895702672 0.0482400846084284 1.12332334828545e-05)
(6.77279554772253 -0.0883298854792868 1.09002422188311e-05)
(7.47513852151938 -0.194235172870174 1.04268124707956e-05)
(7.91472294768488 -0.389176807839487 9.98610130028824e-06)
(7.94301763799681 -0.623591088687221 9.49723694816035e-06)
(7.24219619144388 -0.873571765179336 8.82308642405928e-06)
(5.31749255253987 -1.04411855369217 8.06649251839607e-06)
(2.59581287302885 -0.869590603936267 7.59761149159533e-06)
(0.250501677984205 -0.4608901638035 7.38163672244253e-06)
(-0.960644939153731 -0.0373413395228657 7.30145147986968e-06)
(-1.27655971196852 0.261561502660087 7.05225195672962e-06)
(-1.20176036490615 0.409881850512262 7.01134928891156e-06)
(-0.440422099026725 0.579034311039263 7.11830008229223e-06)
(0.712139991355252 0.664697025528737 7.5405395362679e-06)
(1.76170417165538 0.634307867426698 8.19284552999438e-06)
(2.38123132105198 0.50271471876697 9.03221089941203e-06)
(2.42764801966771 0.31420916222089 9.87465949868758e-06)
(1.44548780931277 0.00139210544993451 1.09226234508624e-05)
(-0.424157680147 -0.224733060675867 1.19504617627251e-05)
(-3.62948300346544 -0.375415905062899 1.34814390563499e-05)
(-6.93929075189068 -0.166481998803845 1.47979756695705e-05)
(-9.01332470523272 0.275624086834569 1.57963343630802e-05)
(-9.71935025434201 0.594894554019934 1.67382626487926e-05)
(-9.33263786810605 0.776564731681792 1.75377544037536e-05)
(-7.87081632358646 0.72081254636651 1.83314610119374e-05)
(-6.06620284586586 0.467203221430726 1.99154791284194e-05)
(-4.80805219929918 0.22442338286291 2.1720344325365e-05)
(-4.58895389900367 -0.100380246073877 2.28044871099916e-05)
(-5.19522370378989 -0.402427133236546 2.36887254991708e-05)
(-7.76709781019547 -0.473859711029279 2.38601216267077e-05)
(-11.4482948181436 -0.110763445059332 2.53341658715309e-05)
(-12.8947868666833 0.199936290928564 2.60892410836747e-05)
(-12.9293765475998 0.391695845127144 2.73429967323301e-05)
(-11.9393119201839 0.467096035864163 2.85983578334537e-05)
(-10.2081577965733 0.336475503839607 2.99258126290243e-05)
(-9.38492659970106 0.0628296696351504 3.12236220015052e-05)
(-9.27541511028759 -0.0928612088902552 3.17047346470985e-05)
(-9.73329838444332 -0.233462092356529 3.17957013462388e-05)
(-10.6281983555289 -0.296301526574698 3.22115642718283e-05)
(-10.9405010044902 -0.233663387667703 3.32087691166857e-05)
(-10.5640030151021 -0.17802726039288 3.20744480389598e-05)
(-9.42602422962804 -0.090421201980166 3.34343037535055e-05)
(-7.79010028136045 -0.00715535526202921 3.44717726358886e-05)
(-5.83456721204714 0.0628382694700151 3.43524416054411e-05)
(-3.95878690043076 0.09300177728239 3.44803595934886e-05)
(-2.1668275413012 0.114599494749318 3.42580539053194e-05)
(-0.218759526590919 0.162472483739348 3.43532957740582e-05)
(2.15335935569956 0.222356986732071 3.38089953032615e-05)
(5.19154318609339 0.297703544957043 3.31198903545007e-05)
(8.95368939635329 0.375846015772064 3.22212366962434e-05)
(13.2981366599575 0.401344530372976 3.10998290044864e-05)
(17.8042537919843 0.400082064844571 2.91742196246782e-05)
(21.7990725838391 0.358738914714874 2.74460952205005e-05)
(25.1694389066379 0.331480380748047 2.49086244711049e-05)
(28.0365072618203 0.250987665356664 2.261354462549e-05)
(30.4378418428444 0.0514638970524392 2.12419134510051e-05)
(32.3738090660714 -0.308929650573029 1.91990562245244e-05)
(32.9343132417927 -0.639089790647501 1.73683072018046e-05)
(32.07580303094 -0.960692415988375 1.52667783229542e-05)
(29.63537820713 -0.736888250184715 1.32861686286333e-05)
(27.6106137894387 -0.311673001602186 1.22525084686484e-05)
(26.9236353561438 0.0796856178949083 1.07419478112025e-05)
(27.4173532153052 0.358508277904603 9.59156061523696e-06)
(28.4913296377057 0.327547807747538 8.53875645881073e-06)
(30.7172491685296 0.264903307744844 8.09499397540984e-06)
(33.147112279295 0.0557609992924554 8.10929072100737e-06)
(34.9266323812478 -0.140862831920901 8.03442385636293e-06)
(35.9631813204932 -0.188394680679721 8.09437007802895e-06)
(36.2976356996502 -0.162157679595326 8.08893588725707e-06)
(35.8221670738798 -0.0633515036284877 7.6839803012783e-06)
(34.1920929225103 0.091319499102545 7.76759128504226e-06)
(31.8275679206899 0.316760597356411 7.92656237422997e-06)
(30.2197148142127 0.390844423081983 8.22900630998327e-06)
(30.0592201679591 0.493855583816548 8.72180896753398e-06)
(32.3583585542392 0.519427764592404 9.25947648197783e-06)
(38.4768362630726 0.487572051047441 9.77358134741367e-06)
(46.9651944381572 0.410103212098183 1.01233729297069e-05)
(54.965831952311 0.252698264912841 1.03088306495281e-05)
(58.7032917722505 -0.361418527423507 1.00191156520312e-05)
(59.4277084176425 -1.01516518791061 9.71492335742074e-06)
(50.2028825278019 -1.63617066442178 9.56355667802761e-06)
(31.8867035757562 -0.888525232630002 9.0663617474206e-06)
(24.4304206546204 -0.160414965943144 8.5056918213566e-06)
(23.8329450068757 -0.0282986750955274 7.45198915659621e-06)
(23.7738339831009 0.17814692944987 6.56832507692121e-06)
(24.2292116891723 0.351014868137236 5.74946624684908e-06)
(25.4031419389356 0.485580080062636 4.75029681799067e-06)
(26.9397837402609 0.595279298327792 3.80378535749792e-06)
(28.0536245176139 0.662389372137928 2.73764417181104e-06)
(28.6480957369049 0.675566858935257 1.5486767786261e-06)
(29.6542377969461 0.619906410131159 9.58671235996917e-07)
(31.632078891152 0.5110335371331 6.32074486490383e-07)
(33.7501446109701 0.193825281464954 4.26452663846103e-07)
(34.310545040758 -0.0740270690204856 3.05478898738217e-07)
(35.016737953802 -0.24160234334301 2.73607846449193e-07)
(33.9985912467158 -0.357177617728471 2.7474430920151e-07)
(33.1815657164167 -0.399889412905816 2.82652009940851e-07)
(33.8083511075437 -0.37635308231442 2.85839626253701e-07)
(37.0368017891738 -0.26288932548759 3.03201395444641e-07)
(42.1170436162938 -0.0968250742959698 3.56812620541984e-07)
(49.9722907709721 0.0964800456982638 3.86781956908695e-07)
(58.8873592299588 0.0280437307994367 4.06533625547215e-07)
(64.6170645648465 -0.0442364028417766 3.93743594791191e-07)
(66.8568716015528 -0.106499291527054 3.69977713161656e-07)
(67.1369901224886 -0.143126247163044 3.32267134740053e-07)
(63.2932104409583 -0.0865853829197509 3.29332973349605e-07)
(53.9677954390096 -0.0603513286692791 3.10389430719759e-07)
(47.6201536065261 -0.127062428286565 3.37972586516028e-07)
(46.7642895741861 -0.124915865466596 3.31085525187187e-07)
(-0.0341147326803232 -0.334747212660362 6.36819219585027e-05)
(0.0211541570248797 -0.340307842230647 0.000183673008261707)
(0.0155554578900122 -0.387786750463605 0.00029298278358361)
(0.101558850899418 -0.450823162691228 0.000431415120419475)
(0.213907434391203 -0.51187602471284 0.000598126885219908)
(0.344774378778109 -0.537256495317839 0.000621504074385977)
(0.467063640792234 -0.570883563647567 0.00052148511291833)
(0.587947742378689 -0.609530531775564 0.000396901052869905)
(0.686766145537614 -0.644176998394912 0.000272722896225073)
(0.7645530358657 -0.666352513836691 0.0001781825171307)
(0.798996950845565 -0.680276671576618 0.000122970883633096)
(0.793356739304794 -0.691649099002633 9.03754198362847e-05)
(0.764925052866857 -0.696993549133912 6.35749565782675e-05)
(0.713190153776371 -0.696758099408576 3.48640284867688e-05)
(0.634798944593403 -0.691833847866716 2.17414835043277e-05)
(0.542326879771134 -0.686271067255656 1.84189794401594e-05)
(0.461355641512441 -0.680022246565643 1.80513093514053e-05)
(0.375754489593588 -0.672648373294327 1.85946665878193e-05)
(0.275848113689407 -0.665507340099514 2.04180614752043e-05)
(0.167082175556134 -0.658108527436662 2.19296112730119e-05)
(0.0568290825693494 -0.641592956029634 2.35862303337884e-05)
(-0.0352622426010599 -0.614156325415944 2.49281082453355e-05)
(-0.0927093779705142 -0.572849616438654 2.4881512810785e-05)
(-0.128793822639961 -0.524721592501544 2.55397379952716e-05)
(-0.147387503530763 -0.472308456669961 2.48496043693779e-05)
(-0.175512132057659 -0.411303431078325 2.35874012445459e-05)
(-0.206472858312587 -0.347190186933196 2.25191430874576e-05)
(-0.238893199232908 -0.274619557965846 2.12395456079804e-05)
(-0.291600228450488 -0.191510465599908 2.00530237262992e-05)
(-0.364203936398531 -0.0880176187933404 1.86707320599182e-05)
(-0.45408015331145 0.0339119074738305 1.70050946080105e-05)
(-0.518732622343866 0.162341808396686 1.60421214425889e-05)
(-0.539976362082867 0.299433277959259 1.55336682752138e-05)
(-0.51352867086335 0.448333605172847 1.50750964727106e-05)
(-0.377267239716972 0.599706480772022 1.46125268036514e-05)
(-0.0880267030093255 0.744084337790752 1.41626714111025e-05)
(0.408862478166274 0.857224307390075 1.38088769096615e-05)
(1.15542279110287 0.911650585953277 1.3500484818559e-05)
(2.16072455192546 0.888258195370073 1.31420254966714e-05)
(3.3690337601569 0.739874568092217 1.26525729096213e-05)
(4.62724678288317 0.440177563131909 1.21177983082316e-05)
(5.77220960288304 0.0795837371417925 1.15766045841188e-05)
(6.73374501046581 -0.205035814658508 1.10206850961331e-05)
(7.44768440457694 -0.459222879569245 1.06108256261604e-05)
(7.86271732123459 -0.742170996774249 1.03473957686471e-05)
(7.8381729288859 -1.09833005137262 9.93946855809515e-06)
(7.12042857290125 -1.47809491050041 9.26767670047545e-06)
(5.27171939993432 -1.71981535201025 8.47904251527987e-06)
(2.69486094459393 -1.42629808869017 8.00391552301425e-06)
(0.417269631017478 -0.73994500014608 7.82015955092773e-06)
(-0.871823916763515 -0.0935856547491585 7.64032289875146e-06)
(-1.21525929501327 0.411509428271091 7.34232702760854e-06)
(-1.14234069087417 0.705698110970827 7.26820334263701e-06)
(-0.395966820521184 0.976425566788862 7.42180871417493e-06)
(0.726204904741915 1.1169314420066 7.92688263041793e-06)
(1.73452782634633 1.06303471495744 8.67949689335385e-06)
(2.30138455724921 0.81492446917631 9.56470473433916e-06)
(2.2844028096729 0.489634155751186 1.05709412971922e-05)
(1.31636369817783 0.00302893809424351 1.14864292975306e-05)
(-0.527203280382797 -0.452824702385468 1.24412778979324e-05)
(-3.65548956621824 -0.621931567387234 1.44754861748421e-05)
(-6.83369783797889 -0.23512851224991 1.59824280969258e-05)
(-8.92160197275248 0.477710008547748 1.64845909020245e-05)
(-9.62533625984717 1.03983061439586 1.74544977658678e-05)
(-9.33863430605391 1.28260446812772 1.84147108266539e-05)
(-7.94103084451548 1.22641775574823 1.95325314352023e-05)
(-6.16327721412908 0.796165628037388 2.13173358146064e-05)
(-4.89900019367014 0.359173868385013 2.30801267824647e-05)
(-4.69603422763016 -0.18718904856947 2.43459124532191e-05)
(-5.36609806571138 -0.68369839903121 2.5739591296789e-05)
(-7.86161006482546 -0.786224571111056 2.62090171018416e-05)
(-11.4354216417466 -0.249394451420546 2.78292166020734e-05)
(-12.8853424678789 0.313375357465774 2.87557126141976e-05)
(-12.9126784729886 0.65954011856607 2.95074366366315e-05)
(-11.9701301510729 0.803340588793455 3.08261929955097e-05)
(-10.3096966316102 0.577718155768231 3.24695169293528e-05)
(-9.45619263767489 0.170935488574146 3.32033409065565e-05)
(-9.34226614091212 -0.201647247414181 3.38592309867992e-05)
(-9.82008428934141 -0.407644859291236 3.47225188898749e-05)
(-10.6807671601972 -0.506560464465057 3.5795036371784e-05)
(-10.9923262017937 -0.406725092821854 3.73982420109244e-05)
(-10.6209889018632 -0.322028166931146 3.81376679162226e-05)
(-9.47386271725214 -0.162742218760547 3.89530112729324e-05)
(-7.82699086077502 -0.00197723965438592 3.91851534159581e-05)
(-5.87887950311003 0.108110212802402 3.9291116602656e-05)
(-4.00856282314783 0.156744294818464 3.92272916957868e-05)
(-2.21138794788007 0.19530172604065 3.90854476524511e-05)
(-0.250150701809898 0.271534713581904 3.76652922301439e-05)
(2.13279305503855 0.370755941961235 3.63270652159871e-05)
(5.17768595561257 0.493540587585319 3.52393535041738e-05)
(8.93804141928812 0.621425908883878 3.3987495474458e-05)
(13.2717013135351 0.682552445850166 3.31330038390663e-05)
(17.7674292248845 0.689118900336458 3.11659490139609e-05)
(21.7666910899663 0.622140826413349 2.94517288000701e-05)
(25.1424273685879 0.565399311953452 2.70426419344281e-05)
(27.9999193612973 0.408271697800651 2.46148000747702e-05)
(30.3860139070504 0.0513582193403917 2.26563700820519e-05)
(32.2717855187664 -0.635356244339606 2.02487502788107e-05)
(32.8466066178116 -1.17875118605736 1.8220914914381e-05)
(32.0018237171078 -1.59975440512131 1.61618218367272e-05)
(29.6559491220548 -1.19068110969196 1.44645070366795e-05)
(27.6482813838519 -0.480700409693024 1.3217133937234e-05)
(26.9485811929849 0.12247205696136 1.13683335146332e-05)
(27.4147556335676 0.461090011588433 9.89684419611146e-06)
(28.4555232983691 0.548676232538665 8.73416411763076e-06)
(30.6733528865741 0.450053038285369 8.24167128423303e-06)
(33.0962196588118 0.108451822821133 8.25379622450705e-06)
(34.866572602555 -0.236033012342509 8.42726816700518e-06)
(35.9080420323733 -0.31175771672037 8.58090661665846e-06)
(36.2415393806672 -0.256849342785452 8.59376849008136e-06)
(35.7826413305435 -0.0897863285129314 8.07797811079766e-06)
(34.1656760997941 0.183763883224048 7.95393308787305e-06)
(31.7931325957223 0.521201514143371 8.15065191990527e-06)
(30.1849704452133 0.713260484461984 8.50191981386269e-06)
(30.0134496971087 0.828188282750602 8.9506743504043e-06)
(32.3083716519234 0.874608593984255 9.52704691728316e-06)
(38.4136382410443 0.827232108805715 1.00418996983237e-05)
(46.8921255156879 0.697654369246436 1.03726697299248e-05)
(54.8630824116643 0.432982746666716 1.05413557398384e-05)
(58.5210859786861 -0.526279387393165 1.03939685265315e-05)
(59.3482445887851 -1.72933396507207 1.00770021980898e-05)
(50.178118745954 -2.76422885325726 9.88018972968156e-06)
(32.0078175048889 -1.4963946525845 9.31537795275275e-06)
(24.4635095778054 -0.266601208065033 8.71438703101992e-06)
(23.8272419732339 0.0485054023203404 7.77553906925928e-06)
(23.7754625695156 0.329860738815584 6.82859228177845e-06)
(24.2035302594901 0.584906934616689 5.99055864281987e-06)
(25.3825052000476 0.814527661386791 4.9427087470307e-06)
(26.9151893927439 0.985064742800236 3.9933333925385e-06)
(28.0255863721438 1.09476923077622 2.88481835873349e-06)
(28.6227426606135 1.12578959387963 1.62636506377015e-06)
(29.6230340638204 1.04500994270076 1.0034448343655e-06)
(31.5764623169099 0.822064319293205 6.63971581863768e-07)
(33.6943480060553 0.315715250510778 4.48327200683806e-07)
(34.2791755519968 -0.122499934586233 3.23675081544411e-07)
(34.9965950587753 -0.417176107254968 2.88183841174954e-07)
(33.9932458328263 -0.601614355108002 2.85967780532403e-07)
(33.1715957720319 -0.677111351060197 2.95779720692578e-07)
(33.7829951282733 -0.623488516919634 3.02827489496178e-07)
(37.0137299486993 -0.441715215520612 3.16201270273309e-07)
(42.1054773663884 -0.159738312708736 3.65666898565495e-07)
(49.952103146736 0.124613801854325 3.96456650377296e-07)
(58.8376014988023 0.0458491910326132 4.16420086523387e-07)
(64.552332199942 -0.0754571049892164 4.05904616573195e-07)
(66.7852349559343 -0.157820937860206 3.79300998955551e-07)
(67.0729465268066 -0.269523467996065 3.46350073694974e-07)
(63.2788306117773 -0.185021690008686 3.38115493952157e-07)
(53.9447136918164 -0.137108934013013 3.18125541811174e-07)
(47.5617305327664 -0.213372408268639 3.47033763021509e-07)
(46.7037186181572 -0.203530385435329 3.43970113566831e-07)
(0.00227918836282242 -0.483936767799099 6.05009601137179e-05)
(0.0611526769988353 -0.475145029258211 0.000122678899719947)
(0.0709675350734663 -0.535771190293821 0.00024500396164711)
(0.157227163823844 -0.623848684851738 0.000449821418298555)
(0.253761669690936 -0.702360726586348 0.000640932810651444)
(0.370548194117843 -0.744990089849592 0.000618983945104054)
(0.480725429959896 -0.794875810936524 0.000564077702761162)
(0.587871305696546 -0.847709600488005 0.000325725801966031)
(0.68038618451245 -0.8981234486493 0.000225948405011109)
(0.743357882387963 -0.930200480595798 0.000156106891747872)
(0.782169347869152 -0.946066103228618 0.000113901987806686)
(0.777887701338128 -0.963224358303547 7.74825223453697e-05)
(0.745522927826477 -0.971610456545664 5.44003279434589e-05)
(0.691723021491858 -0.973390048857698 3.19891507278202e-05)
(0.613698459389717 -0.968394438624894 2.54448621383526e-05)
(0.520820054552294 -0.962369670280917 2.33999734499096e-05)
(0.446849660917899 -0.953645905532135 2.39440678698948e-05)
(0.348303003855004 -0.942637052333946 2.59520809418079e-05)
(0.249470613552261 -0.932834419653287 2.85183959046481e-05)
(0.145263767629053 -0.922188583352611 2.97718486979106e-05)
(0.0411728542403826 -0.898334597802027 3.08820013105661e-05)
(-0.0460389844232993 -0.860206501451481 3.24370741344184e-05)
(-0.0992072295700826 -0.804123977190388 3.28834385697046e-05)
(-0.12921263878585 -0.736518223823001 3.31863958361133e-05)
(-0.146417450930339 -0.662789126331117 3.10922422235957e-05)
(-0.168891989902111 -0.577542075452083 2.84206334099543e-05)
(-0.198947614563446 -0.485724941280205 2.66781116401586e-05)
(-0.22903869104533 -0.381305917476674 2.49609404051042e-05)
(-0.275299823694906 -0.263945784946857 2.32186338503545e-05)
(-0.340995174204522 -0.128832115421948 2.14636325323353e-05)
(-0.414876918604474 0.029198447044794 2.06408721485558e-05)
(-0.476202654302291 0.214529256374875 1.97715380131365e-05)
(-0.501866623398522 0.414826402618433 1.87846453018843e-05)
(-0.479864376226806 0.622907330897179 1.8006694123618e-05)
(-0.348158907664415 0.832664569401797 1.72453713911966e-05)
(-0.0689103176221039 1.03426138694178 1.65162369564316e-05)
(0.407834559311364 1.19613869697063 1.58781515594874e-05)
(1.1236770244321 1.27811752616987 1.52368767165057e-05)
(2.08484175114092 1.24009908431277 1.45928763957836e-05)
(3.23272202741923 1.02805678538202 1.3905381038875e-05)
(4.44201130316209 0.637003610366888 1.32734543334326e-05)
(5.57845369527064 0.170966021455494 1.27314663721994e-05)
(6.54305821630201 -0.241576416703717 1.23450566710509e-05)
(7.24473311757874 -0.604830203898358 1.20264001879851e-05)
(7.65919390697386 -1.02528731040724 1.15267988349895e-05)
(7.58740721929697 -1.50795214022175 1.09871332412087e-05)
(6.85295523522679 -2.04812132819696 1.01385309855677e-05)
(5.16583858208459 -2.37311470376837 9.18063019817203e-06)
(2.8038587241561 -1.99695614906196 8.56908823780953e-06)
(0.587502949536599 -1.08160830610506 8.28760602358777e-06)
(-0.750858591810101 -0.186058907193102 8.16593273089018e-06)
(-1.11718834288288 0.534024175859866 8.00480372743954e-06)
(-1.08670469931905 1.00450755986321 7.96240160972879e-06)
(-0.387504179052198 1.37323816147712 8.19120673488927e-06)
(0.685374803843706 1.56784720276325 8.73990052702729e-06)
(1.63998487323519 1.50740027027791 9.52304555374218e-06)
(2.15962821178153 1.15180071909221 1.05306566198327e-05)
(2.04554633706112 0.646397780112445 1.16766693423869e-05)
(1.03013841154434 0.0388633580207656 1.29832912764046e-05)
(-0.802159025394858 -0.609321396351041 1.46298143403731e-05)
(-3.75486658555865 -0.843761723331724 1.60654020702212e-05)
(-6.74836661562289 -0.333944053946106 1.7402257791055e-05)
(-8.81398080751314 0.62561902039967 1.8379058722106e-05)
(-9.57585059817113 1.39810719782134 1.93236451366096e-05)
(-9.42348594170876 1.7545775978435 2.03034822856394e-05)
(-8.11520614744999 1.72925854833428 2.15321094919319e-05)
(-6.35493420339702 1.14410069930769 2.35172325340592e-05)
(-5.08106227104865 0.527958704840112 2.5186719816513e-05)
(-4.94075560228722 -0.204898331030753 2.70001007033401e-05)
(-5.69954452299623 -0.834183389116045 2.88296079993876e-05)
(-8.07359008815411 -1.07795686445683 2.94578237700897e-05)
(-11.4527466257603 -0.41484453487826 3.11677099257126e-05)
(-12.9401372007743 0.394236977920499 3.303148478701e-05)
(-12.9711209669158 0.921625977593078 3.38759614496804e-05)
(-12.0917357789933 1.15970138568092 3.48811554778319e-05)
(-10.525375571383 0.854948144648793 3.65032089112474e-05)
(-9.61085199171979 0.286921437766262 3.71869793902364e-05)
(-9.53008408920119 -0.251278775508185 3.85889143305631e-05)
(-10.0139639353021 -0.583056039392338 4.02980494007625e-05)
(-10.8154101304327 -0.719439897712768 4.17629540719128e-05)
(-11.0982508110461 -0.592114678478555 4.38942705147451e-05)
(-10.7234598670161 -0.449222103922494 4.46820243529352e-05)
(-9.56290937917312 -0.23952239958879 4.49624418443644e-05)
(-7.91126881952216 -0.0204192984676317 4.58537467879437e-05)
(-5.97499789573296 0.132903564421409 4.63596819819497e-05)
(-4.11609631442938 0.19623256099838 4.63702760028357e-05)
(-2.31796134314248 0.252986689383067 4.6087159279006e-05)
(-0.348019025567389 0.360847663757778 4.48950648867927e-05)
(2.04656199181065 0.510194532455132 4.32816847194687e-05)
(5.09960398080524 0.683998486573615 4.2384381953775e-05)
(8.85549166052718 0.859027766398456 4.17467152680316e-05)
(13.1740905605672 0.962195894140903 4.04892603531506e-05)
(17.6475092440953 0.974745909692057 3.83641345921968e-05)
(21.6385245596974 0.879970162071244 3.62481001455622e-05)
(25.0316790463652 0.796611225149035 3.20827051478407e-05)
(27.8804491885046 0.575063041165848 2.81968232791908e-05)
(30.2336772642614 0.0389713686486194 2.59649599955804e-05)
(32.0240601250803 -0.860113294212829 2.32516770985046e-05)
(32.618361880805 -1.67782201995721 2.07999113802031e-05)
(31.8797407378426 -2.23446722988404 1.80620176314191e-05)
(29.6781659374487 -1.66543329078682 1.5945018093145e-05)
(27.6905863970823 -0.661662008631908 1.42846768153123e-05)
(26.9937686667921 0.129900738955081 1.25435678529789e-05)
(27.460849478633 0.532794895854273 1.14965065171037e-05)
(28.4666836035169 0.754495634086922 1.05293185418093e-05)
(30.6108880396155 0.63598012420457 9.95730441218829e-06)
(32.9795696261626 0.143425333115353 9.4356938270659e-06)
(34.7649697268629 -0.330651094905418 9.04133562969143e-06)
(35.8212906134988 -0.439762643350892 9.15988549257925e-06)
(36.1550728032843 -0.352888213444184 9.08505791074002e-06)
(35.7063338617033 -0.116273727738851 8.8797850120861e-06)
(34.1371645127717 0.272638987474248 8.81917144424112e-06)
(31.7798372587799 0.716843168870928 8.87388024499358e-06)
(30.1928856318544 1.05680179595747 9.27777574156466e-06)
(30.0010860200999 1.16571355044702 9.67330229151292e-06)
(32.2501210601649 1.23859971574815 1.00470647119606e-05)
(38.3114320556901 1.18059910439663 1.04255395670685e-05)
(46.7734036156728 1.00105931180029 1.06678701255403e-05)
(54.664992301681 0.605026875357342 1.08196898681902e-05)
(58.2598974742032 -0.647969767378539 1.07478235780898e-05)
(59.0097347448303 -2.35865665935745 1.06141173812138e-05)
(50.0135878768806 -3.87154107555034 1.0245984762029e-05)
(32.1964008678065 -2.13728724098446 9.55279787132901e-06)
(24.5249002100789 -0.405302605748907 8.93636758858826e-06)
(23.8476634051475 0.14575893047108 8.29516715731114e-06)
(23.8005626834582 0.479569344089018 7.46582216510248e-06)
(24.2012709562452 0.821536772200019 6.56303961819469e-06)
(25.3773839499785 1.1526534578102 5.48185889755573e-06)
(26.8905171193032 1.39430508517672 4.384608464254e-06)
(27.9898580443504 1.55049357771717 3.18863889389005e-06)
(28.58451842454 1.60140749323421 1.78228586559058e-06)
(29.5598845184211 1.47396131120957 1.070032614787e-06)
(31.4814128933115 1.11511990900141 6.93328244550597e-07)
(33.6120887596365 0.438418660066473 4.66788925044157e-07)
(34.2206736739401 -0.170270216629881 3.4098160452635e-07)
(34.9213709353698 -0.587645868182162 3.13099979750458e-07)
(33.9327596748119 -0.848970737987301 3.12120089461832e-07)
(33.1211708677644 -0.959425997208761 3.17288631498449e-07)
(33.7323065589563 -0.869344390691972 3.28493902178904e-07)
(36.9736944966371 -0.616696534106757 3.4302093681175e-07)
(42.0730720553365 -0.225664207592081 3.81883384796613e-07)
(49.9160764813554 0.142220072696328 4.06016276703085e-07)
(58.7611603036334 0.0581103452816492 4.2570795659773e-07)
(64.4572426434275 -0.0961503203219126 4.16816391634056e-07)
(66.6781111611212 -0.179276731341145 3.89660002282912e-07)
(66.9438740072335 -0.376249652690781 3.60222296354493e-07)
(63.1624349373721 -0.28265267231217 3.55018282407673e-07)
(53.8228197344101 -0.205372819847397 3.31037651806579e-07)
(47.4768845860626 -0.307376016862442 3.54845178679946e-07)
(46.610171750505 -0.300796413933847 3.53125232250493e-07)
(0.00419155908453917 -0.64564552347186 4.05633856999564e-05)
(0.0715141245717318 -0.639902788784344 8.40184092320571e-05)
(0.122730085695718 -0.706489283057984 0.000233561434010066)
(0.208132462497051 -0.798921082698783 0.000467100892988257)
(0.29359854283851 -0.886902905084269 0.000644758895729186)
(0.395053917501109 -0.950953524012872 0.000588200364268482)
(0.493218979734675 -1.01938875230461 0.000447708037914279)
(0.590373958707415 -1.0853408276802 0.000367597421782653)
(0.673744778489399 -1.14759270486032 0.000131081915304471)
(0.731037606203815 -1.19316462807055 0.000112832050557228)
(0.753985959851457 -1.2156129148594 9.4851565417491e-05)
(0.754762039065361 -1.23821851797332 6.31085723176952e-05)
(0.721662573723736 -1.24946101088566 4.728303536628e-05)
(0.66450084566477 -1.25460197397797 3.32024251250421e-05)
(0.584484528714306 -1.25274969441321 2.8736831011551e-05)
(0.503568293848907 -1.24557618763597 2.89377929518776e-05)
(0.410715636664206 -1.23203016095038 3.12045731434127e-05)
(0.313822341114102 -1.21871877491072 3.41112824004967e-05)
(0.216804167534779 -1.20609426694599 3.73141169486138e-05)
(0.115420389560968 -1.18980034566818 3.93745478418651e-05)
(0.0168865880358603 -1.15679283385325 4.05021935479557e-05)
(-0.0638673780108375 -1.10566871014954 4.19556422300165e-05)
(-0.113412717164443 -1.03461652792612 4.30728400751886e-05)
(-0.136058985253807 -0.948536469057585 4.31773020433198e-05)
(-0.151132090388123 -0.854568065251732 4.31052571040995e-05)
(-0.164868732413414 -0.744837035299704 4.13346977280506e-05)
(-0.19272114581073 -0.622963395588596 3.88986738283625e-05)
(-0.219090375769167 -0.485254880294094 3.56058230399049e-05)
(-0.258842255332476 -0.332455095660547 3.23841437917959e-05)
(-0.319383150508634 -0.157907143280855 2.93674491227248e-05)
(-0.388410917782546 0.0468036353370172 2.71226465770913e-05)
(-0.448938471114978 0.281152893446054 2.52937952946625e-05)
(-0.474768267189565 0.535456576229516 2.37375175374514e-05)
(-0.457249302234948 0.799789876898433 2.24742550273841e-05)
(-0.332627367813605 1.06627323969047 2.13887401737985e-05)
(-0.0673058388067143 1.32495803726166 2.04102118099916e-05)
(0.380340690155281 1.53764817997547 1.9555563121624e-05)
(1.04623189025203 1.64671159658349 1.87288054593313e-05)
(1.93385545630672 1.58555610615484 1.79146834529809e-05)
(2.99849636007889 1.30659367759689 1.71098670176881e-05)
(4.1492570672197 0.834753439135748 1.64194140115395e-05)
(5.27097581143244 0.269638286017044 1.57982343180673e-05)
(6.26236368780544 -0.28390379272406 1.51002650093254e-05)
(6.97888404909841 -0.788601145471967 1.43999477453799e-05)
(7.36760188440287 -1.34056265706406 1.37376177550373e-05)
(7.26930267050586 -1.9539536702043 1.29761549003669e-05)
(6.5373087390563 -2.62621769994639 1.19694549415912e-05)