/*--------------------------------*- C++ -*----------------------------------*\
  =========                 |
  \\      /  F ield         | OpenFOAM: The Open Source CFD Toolbox
   \\    /   O peration     | Website:  https://openfoam.org
    \\  /    A nd           | Version:  12
     \\/     M anipulation  |
\*---------------------------------------------------------------------------*/
FoamFile
{
    format      ascii;
    class       volScalarField;
    location    "0.045";
    object      p;
}
// * * * * * * * * * * * * * * * * * * * * * * * * * * * * * * * * * * * * * //

dimensions      [1 -1 -2 0 0 0 0];

internalField   nonuniform List<scalar> 
54000
(
9049.70108034333
9049.45723833357
9048.72792976335
9048.26216338755
9048.48025385134
9048.72259512174
9048.638489308
9048.35518347821
9048.41250439711
9049.01317610919
9050.08948521814
9051.25878841366
9052.23962517153
9052.86927750615
9053.03773257141
9052.61612022876
9051.59850191693
9049.78943787115
9047.0304234001
9043.32837753457
9038.82639986911
9033.75265300887
9028.26209664986
9022.5969778556
9017.34100305899
9013.21692446127
9010.85399352319
9011.20470031533
9015.40227029763
9024.35959875264
9039.91935020472
9062.6717898405
9090.97493667887
9120.99487033107
9148.12591370641
9167.32833455082
9173.51011505094
9163.2980368627
9140.1054441252
9106.45227097826
9072.10063582602
9047.1344512812
9035.35158503097
9035.00739074152
9044.65257934958
9061.87686444905
9080.854893126
9100.41112720458
9122.77474280416
9150.02377514049
9184.02735503232
9223.0613840178
9260.0753459475
9287.10365072662
9298.00735154747
9294.81022782039
9270.9227464821
9220.98309787707
9147.67648078442
9066.25304687812
9000.48122756091
8966.34004280014
8963.11112581061
8976.9141864814
9013.12978738498
9071.76651552683
9140.48790929143
9206.87337259079
9253.50217329009
9276.99402884123
9263.07102216396
9202.13778518752
9125.28957828475
9081.86932304283
9077.69644057395
9111.11891069014
9175.34509823844
9270.23517614964
9366.02838549559
9424.14544046234
9446.4091858085
9433.57384051745
9393.28538378296
9334.85756850834
9277.53500121402
9236.38993713271
9215.05651743777
9210.12833485918
9214.42661625129
9214.45226682116
9190.89703233439
9128.63018330789
9028.212663062
8941.69855997109
8907.16708366212
8931.46342697267
9022.76286212306
9186.16175765517
9379.7938550483
9561.78302868656
9676.37153447
9647.97106720194
9391.98275720519
8943.17124454288
8593.71546286199
8445.71433057989
8428.50051422417
8515.56772620673
8709.39853090026
8945.58999400012
9140.92165109659
9261.3316474422
9338.71739292637
9436.3480607978
9604.56603852585
9856.33631807871
10151.6629784642
10373.7052992612
10311.093408049
9752.51801353803
8778.59937533227
8125.56131869438
7900.04766223341
7889.25332980108
8047.36131786712
8377.4482654979
8800.97406824901
9215.33080855269
9521.0577927962
9633.61182752587
9540.00519342362
9289.62288106465
9013.16888513468
8850.02723392566
8884.53072092261
9157.62021182976
9588.19477032488
9879.8615171487
9652.64957600743
8688.24730281601
7467.77867239861
6950.43789331764
6806.12727722568
7018.26712526778
7627.76121602166
8921.31673063724
11664.2502816192
18373.0902951706
32657.5735166244
39758.4796463541
9048.46872262648
9048.51265086972
9048.03531168772
9047.61234746371
9047.5646365492
9047.57507557064
9047.43676910749
9047.18130877032
9047.18915189415
9047.64000857003
9048.51000218171
9049.49056822451
9050.32694695615
9050.84604453054
9050.97497723327
9050.61228302119
9049.6707717193
9048.0121179808
9045.52820294221
9042.17934525178
9038.11967363769
9033.5661512651
9028.73183985056
9023.89294873935
9019.40600081177
9015.80741592725
9013.66447289292
9013.90919952061
9018.12955739171
9027.21185984112
9042.23356759183
9063.65279948871
9090.03895748432
9118.44392396683
9144.74600028784
9163.35426993156
9169.98539049716
9160.98934057889
9138.93399378266
9107.18888444902
9074.01836285468
9049.41815007603
9037.47109999092
9036.34555859476
9045.10018871982
9061.39795161924
9079.75497582289
9099.17738990745
9121.52320328732
9148.8897396842
9183.16263877271
9222.62317837283
9260.19786351039
9287.86984614736
9299.33361465814
9296.7284434287
9273.50202479106
9223.86929325538
9150.96839135944
9070.37977628587
9005.58066108194
8970.71097577879
8966.20906467518
8979.91530161324
9015.63091237648
9073.11766254675
9140.50571772016
9205.50764665196
9250.36678249077
9272.65622764249
9256.63438062801
9195.31309294666
9119.97254493215
9078.4908407392
9074.68466253734
9108.70095239568
9173.03147735841
9266.90701090307
9360.15737689238
9417.07187169648
9439.01170023567
9425.73176732597
9385.87590440094
9329.78803243854
9275.41090075777
9236.30136037302
9215.65366415281
9211.23216832392
9215.14387389289
9215.2030357615
9191.73710288061
9130.02785673553
9030.92992011621
8945.43335100706
8911.21963581683
8934.45696302876
9024.2125820225
9185.09567728023
9377.05205226415
9556.24044360984
9666.16106837255
9636.589565633
9380.01088348076
8942.81693022213
8598.27873725259
8449.63280611333
8431.50562180972
8517.36226928
8709.3444411427
8943.6947804997
9138.86737697836
9261.64875732125
9341.83600511846
9440.69854959427
9608.92037148533
9858.57305401523
10149.5261754629
10364.4131565391
10297.3715051965
9740.06309750375
8785.8170838259
8135.68927433524
7907.08982482037
7894.19271290016
8051.38804028906
8379.99711045892
8801.53851976032
9215.11112927679
9520.92707754958
9634.08738357646
9543.06163394209
9293.86011008914
9017.97619422753
8853.13270428861
8886.88784907289
9157.78454767021
9586.11831687131
9873.565655228
9646.35379738297
8686.15170839186
7473.86760404837
6952.84786803491
6809.71383674406
7022.88745214592
7633.46800782761
8925.18546715605
11665.5815593045
18295.0946398416
32174.2450078223
40308.6734363338
9046.85951158195
9046.92508220899
9046.69968781437
9046.35786651823
9046.04263299432
9045.78321884161
9045.5272421707
9045.23857000881
9045.14769849289
9045.39479466555
9046.00025372583
9046.74022970132
9047.40231704812
9047.80548644718
9047.85966191567
9047.49186558917
9046.54543423753
9045.00760559243
9042.83460423209
9040.02633118285
9036.71180770201
9033.08955068457
9029.35439468622
9025.69398793242
9022.240699022
9019.37919366512
9017.75858054238
9018.44392995853
9022.67067114771
9031.62911547813
9045.65865862083
9065.06382325393
9088.85664644211
9114.80109444171
9139.27912231009
9157.03203983247
9164.10971005763
9156.87208519934
9136.30519050338
9107.5579724046
9076.55405836749
9052.74909765229
9040.55681297559
9038.63006575206
9046.20142987054
9060.9859616367
9078.31473078588
9097.49598128898
9119.84852224887
9147.40738641449
9182.06126538505
9222.00198403042
9260.30453336687
9288.98693799753
9301.34550701532
9299.57427745844
9277.17311247625
9228.32042767204
9156.30812110938
9077.29360095018
9013.94819114881
8978.23194401849
8972.14873807808
8985.57753927508
9020.36797594936
9076.2005557959
9141.89498351294
9204.60732893434
9246.20710342343
9266.31693537628
9247.51317870212
9185.6209166301
9112.49073000857
9073.4443245227
9070.50063678504
9105.57795251183
9169.99857031154
9261.91092438571
9351.93489191993
9406.99628022319
9426.01555959832
9412.1077641281
9373.12226196344
9320.70409203436
9271.37760084717
9235.47360817826
9216.39816978796
9212.82304696498
9216.4340286984
9216.08456676885
9192.88678627436
9131.9670144494
9034.89598376879
8951.15192913235
8917.81795264876
8939.99606045197
9027.57743020226
9184.82613518251
9373.88768875645
9548.86040557707
9650.40015872667
9616.90818051022
9360.91887031403
8940.86022630109
8604.55610949209
8455.30420650774
8436.61258650662
8521.03879183748
8709.82439959522
8941.0260853622
9135.75629165443
9261.99565713212
9346.50072213
9447.46889552926
9616.01908273537
9862.46127370217
10146.3380650291
10348.3269819307
10274.3891128843
9719.22089956201
8794.5102860818
8150.22277067211
7917.94068215981
7902.62474877993
8058.46431415707
8384.72794531277
8803.01499821846
9215.13335060239
9520.62397212009
9635.01362938747
9547.65303088178
9300.12367243132
9024.9020160118
8859.59825888626
8891.18754195396
9158.81066615263
9584.14282526042
9862.49315395322
9634.73699797748
8681.34601461907
7481.48092052017
6957.41724899807
6815.04718873157
7030.40199326871
7641.38024343823
8930.6484392055
11667.9663446459
18152.4489491629
30773.5279621089
37566.0333623457
9044.96848289521
9044.88530408393
9044.79736086418
9044.49328779586
9044.01437333983
9043.51863117188
9043.08448997623
9042.66961008347
9042.41563466845
9042.41333452552
9042.71632918369
9043.17145639674
9043.60769226711
9043.87767074561
9043.87034249303
9043.47826850345
9042.65815173743
9041.37603678504
9039.64691799792
9037.57288218063
9035.24644372092
9032.79960330941
9030.3615042318
9028.00393380307
9025.75602881883
9023.91849396586
9023.18151709129
9024.5191732614
9028.75251168894
9036.89022193928
9049.64334838193
9066.63946354609
9087.10860059228
9110.0300153347
9132.3483195273
9148.74941945339
9155.91757918774
9151.07465886273
9132.83288558139
9107.85886753598
9079.87959034374
9057.11698780664
9044.69978559346
9042.02444830447
9048.15524651735
9060.85116139891
9076.61499080778
9095.23463353765
9117.53734558905
9145.21036162922
9180.27971874635
9220.85660948284
9260.04260374379
9289.97594702286
9303.58583773558
9302.78734798958
9281.71540682055
9234.04800747904
9163.4961184023
9086.68963621003
9025.22058053441
8988.87795752726
8980.96011013014
8993.76667691512
9027.19317380906
9080.59609321783
9143.54786709489
9202.57678295634
9239.7925458752
9256.90755448835
9234.74472555194
9172.46688052364
9102.44112831079
9066.28793509869
9064.70989442052
9101.0628768326
9165.36785558273
9254.27680523678
9339.72792618927
9392.65601285305
9409.170109046
9393.46966762532
9356.23482769203
9308.87019929804
9266.32090883258
9234.55426954501
9217.66612685669
9215.12390502441
9218.11357032524
9217.03408629116
9194.19670928595
9134.26154746791
9039.98160496176
8959.16736787135
8926.6022662014
8947.73901374488
9032.71600688358
9185.21875723973
9369.57586317915
9537.95356393051
9629.93345213355
9588.92644475159
9336.18256277524
8938.95203033189
8613.28512128914
8463.14644778376
8443.63975980921
8526.16427880538
8710.32998748165
8936.97553590607
9131.31150526129
9262.22376532877
9352.70127626906
9456.81288077972
9625.39842799817
9867.60711641354
10142.2238807865
10327.3690018823
10242.2372149869
9691.98536105853
8806.86757090158
8170.23426695709
7932.95411677165
7914.50986238286
8068.38979945654
8391.33589923969
8805.27292597859
9215.15821570384
9519.61827086291
9636.2675115711
9553.67308454034
9308.62967237321
9034.43047661608
8868.05687469154
8897.46080006891
9160.1621557271
9580.09717143733
9848.68714653992
9620.5558486853
8675.11293220025
7492.01500639328
6963.77246349126
6822.53698672722
7039.45451981583
7651.82681929631
8939.32529727531
11677.6489346529
18009.0016865044
28890.7403155995
31919.9302950248
9042.74421844982
9042.37462523747
9042.33939796329
9042.03027975894
9041.45116143494
9040.75241512971
9040.11205274171
9039.50563343649
9039.02512010823
9038.73016367003
9038.69814470394
9038.85581201572
9039.06920702877
9039.19044490622
9039.13004793698
9038.82584584511
9038.27560626558
9037.44832746631
9036.38823092394
9035.18855484719
9033.94213059733
9032.74734370767
9031.64042836197
9030.64678798246
9029.7963159395
9029.38567197399
9029.86256053889
9031.88588882413
9036.08748669176
9043.17508173882
9053.70148003859
9067.7202281023
9084.88145816647
9104.1698563577
9123.26084370252
9138.06971240865
9145.32759402412
9143.18069752421
9128.67533090418
9107.94565774408
9083.89398624057
9062.74540973723
9050.2075365589
9046.86766038654
9051.31096937822
9061.49304044357
9075.08120634048
9092.62935862418
9114.75617720767
9142.4720736284
9178.02030300062
9219.36238213149
9259.55133505678
9290.8658113723
9306.03143446289
9306.3447432646
9286.88061529314
9241.0171842327
9172.57228554322
9098.47234443614
9039.13439151211
9002.74439073135
8992.9945077613
9004.77237110679
9036.14136024047
9086.0449495239
9145.2433887942
9199.81967850107
9231.63477919304
9244.72131871798
9218.65554096303
9155.91120809229
9089.57324840285
9056.95940217638
9057.17637881755
9094.88552341847
9158.96484574379
9243.97734427201
9323.31105888094
9373.11770625728
9386.48780680809
9369.28630838292
9335.02958581341
9294.50071789953
9260.0300374742
9233.41463077852
9219.3543179505
9217.88267933126
9220.25307607418
9218.39929982613
9195.42867507755
9136.6634061672
9046.01103925929
8969.10529903371
8937.67893899776
8958.07596717354
9040.08491629374
9186.62635791961
9364.4484062377
9522.59807476979
9602.75929571838
9551.97217096247
9306.03169005462
8936.86726292358
8624.43039874129
8473.36762664379
8453.21089851479
8533.17698014076
8710.97486380849
8931.25827869427
9125.30370733572
9262.67144538511
9360.07199372122
9468.68893111718
9637.10897526228
9874.04428889875
10136.8056557291
10300.2520069887
10200.1621863119
9658.46438863693
8822.49465817215
8196.1998409163
7952.32864465161
7930.36201164009
8081.57367933269
8399.94585669693
8808.28437287757
9214.94104348015
9518.55020044676
9637.40967622298
9560.81465463921
9319.62185742935
9047.3747553528
8880.0470352922
8906.23316140105
9163.20626357496
9575.53801982044
9830.03503169337
9601.31469906905
8665.77556491945
7504.74388953544
6973.91400669266
6832.90533874028
7052.26447703372
7666.59849305018
8951.20255122991
11679.1926788899
17709.8854451981
26132.3196010204
25137.4761692893
9040.32624424959
9039.76586137768
9039.66464983261
9039.28451851314
9038.65801337529
9037.80010067667
9036.9197915717
9036.06134806565
9035.30240178466
9034.68743924371
9034.2988550539
9034.12042570478
9034.08042879554
9034.06812934629
9034.04178907438
9033.99547000947
9033.88986147163
9033.70068941215
9033.45460714621
9033.210327673
9033.0401684613
9033.02406131573
9033.19665657782
9033.6248793386
9034.34460477426
9035.49561969212
9037.2215659241
9039.8459328772
9043.83981843767
9049.76118357435
9058.10037227931
9069.01380496973
9082.47233306197
9097.60150836253
9112.68869577755
9125.29151538492
9132.68990868589
9133.2200921116
9124.15172819463
9107.74873844171
9088.30003849763
9069.63820210377
9057.38681286138
9053.36688732614
9056.06550919366
9063.46791132824
9074.34772741505
9090.01624674052
9111.63577828491
9139.23519405846
9175.2279368404
9217.43634071664
9258.72940867958
9291.42963057283
9308.495447441
9310.17330317191
9292.46394840488
9248.72079543909
9183.04887464952
9112.13982856079
9054.88393684953
9018.90878421971
9007.64435050405
9017.99527681803
9046.87585168629
9092.65321763556
9146.92115009114
9194.745070185
9221.87727483005
9228.82163553058
9198.063215135
9135.76516112797
9074.34493621637
9045.51141147836
9047.92703956042
9086.76979529712
9150.26818813625
9230.63730104335
9302.68085216382
9348.36824997673
9358.43572088142
9340.45771701683
9310.20290324252
9278.22360748576
9252.52739280687
9232.05418400924
9221.43571377351
9221.00688782678
9222.45410437432
9219.54702857513
9196.23774906187
9138.53460866223
9052.46682422306
8980.3327297216
8950.88629733728
8970.64127539422
9049.77973625399
9189.36156742984
9358.81011867242
9502.37703610883
9569.13941241779
9507.04007486252
9271.80974553019
8934.64976484096
8637.95434579315
8486.71105892445
8465.49581664324
8542.01652613839
8711.02782786841
8923.29625430248
9116.87813637616
9262.230367755
9368.14184807548
9482.82607992406
9650.96771476174
9881.19343306826
10127.8251465226
10267.2188870414
10149.0122776167
9620.61138536648
8841.54090134642
8228.67205618242
7976.22704959087
7950.54145984236
8098.25223269354
8410.53496314381
8811.81738749849
9213.88395857711
9516.16110464736
9639.30730084189
9568.85397338932
9333.41314810417
9064.00186672596
8895.51022486806
8918.4434747832
9167.82667443113
9569.14069149841
9808.12180906503
9578.93507030251
8653.89562078067
7520.94075020569
6987.17882450624
6846.13744835603
7067.54071142729
7684.75464146627
8966.5693008168
11684.0636051223
17308.2862441949
23430.4508939364
21190.9893939107
9037.82677654772
9037.60967172823
9037.26245653419
9036.7057547611
9036.00288701182
9035.03643163396
9033.94336298953
9032.81339074924
9031.73954124083
9030.78923142867
9030.04425221622
9029.52356047064
9029.22806137841
9029.10894887439
9029.1612145668
9029.37025310477
9029.7283272353
9030.22431278482
9030.84447597405
9031.60452337017
9032.54628185195
9033.73473407955
9035.2101228275
9037.04047275641
9039.22162718422
9041.73820385832
9044.55140029955
9047.69293793079
9051.36501136421
9056.00107952224
9061.98833474636
9069.71769488064
9079.3535313738
9090.09974580888
9100.9807287613
9110.98492436537
9118.5361594367
9121.79721254461
9118.71700596142
9107.37948677814
9093.15662443735
9078.53177443259
9067.12642534842
9061.82071695746
9062.48319743789
9067.11178025209
9075.02859324056
9088.0040730307
9108.40319383681
9135.78515403091
9172.09872461842
9215.24307100312
9258.02022719051
9292.5614802226
9311.51148046578
9314.40456068049
9297.78049710934
9255.99076843161
9193.72782398154
9126.84591717888
9072.18305031767
9036.63835025787
9024.11719244322
9032.50440865131
9057.85549751831
9099.24220080808
9148.51093885225
9188.03374027349
9208.86470973807
9208.89135242139
9173.92751588471
9112.57490411339
9056.85894490493
9031.7259422661
9037.21080153588
9076.74666013649
9139.06899241908
9213.80067059122
9277.64056621846
9317.60672904578
9324.71862148336
9307.62119006266
9282.87627983436
9260.55577700824
9243.68982987566
9230.09697140955
9223.58603961122
9224.33520399288
9224.75518504776
9220.25286903133
9196.0462006408
9139.23304181372
9058.36743803469
8992.10971079977
8965.60991272056
8985.35282545318
9061.4181724609
9192.74863306803
9351.20174395808
9476.93869071773
9527.95556275175
9455.47212372423
9234.95721598412
8932.38462056021
8654.45094918737
8503.739742895
8480.5647398932
8552.44073735152
8710.30321751359
8912.78787847473
9105.41810950507
9259.07752971528
9376.09757772223
9498.50036700296
9666.77333129069
9888.99796072594
10113.9288906243
10227.2116617255
10089.8304072689
9580.90261120262
8864.01107969517
8268.02853371927
8005.01097400318
7975.3723775959
8118.58234957039
8423.08868618175
8815.7465290682
9211.61181163135
9512.35486400506
9639.93005692249
9577.51645924118
9350.22477927661
9084.87304747817
8915.5089495259
8934.57836224553
9174.13714253654
9561.83787644613
9780.35169027177
9550.38501229837
8639.25257012795
7540.9247320112
7005.38177544286
6863.77280884579
7087.27573544567
7708.55035503469
8986.40920349465
11679.3857159395
16843.7434857532
21314.3566013883
18899.7926094111
9035.76261087006
9036.07036843897
9035.59070069562
9034.85080662807
9033.98003157266
9032.91837868775
9031.67560104594
9030.30678696046
9028.93875331559
9027.67406959636
9026.60127626782
9025.77375920644
9025.24196451943
9025.00426071597
9025.08048601247
9025.48239672906
9026.2580697935
9027.45418963847
9029.02542555162
9030.88548348143
9032.99257576027
9035.35591957038
9037.97601181361
9040.86366373997
9044.01115275322
9047.47125569198
9051.03744584407
9054.52800916001
9057.83303722232
9061.2076427723
9065.08410140654
9069.88570571499
9075.63589262401
9081.98030454659
9088.86338317124
9096.31278933343
9103.79132423617
9109.7371190068
9112.20540041251
9107.57787022516
9098.65455330011
9089.06694294707
9079.52864940002
9072.79447730652
9070.78107202065
9072.49117223944
9077.49646293804
9087.46438810657
9105.71230861983
9132.51462536014
9168.35165831581
9211.71290215737
9255.63650837227
9291.71201405842
9312.46963415711
9316.62003558633
9301.30015421004
9261.77181092903
9203.52600984739
9140.91197313566
9088.95534981308
9054.67524476937
9041.40926893308
9046.83100505212
9068.56384116442
9104.70536258494
9147.23527824153
9177.19925657198
9193.08023061814
9184.56629896703
9147.96136213223
9087.4411744288
9037.58825712123
9015.94250146336
9025.37393219673
9065.24534258379
9125.63447940326
9193.35163943969
9248.51404137754
9281.65012636587
9286.18220022961
9271.85238491052
9254.46274158053
9242.25141704218
9233.8081971002
9227.52788440648
9225.61980488259
9227.67912067394
9226.92460967865
9220.08139136795
9194.31272044346
9138.00445518978
9062.74904234437
9003.35479230155
8980.7438708185
9001.23582898974
9074.39540295603
9196.64854535826
9340.29939189261
9446.60613582696
9480.3426991779
9399.67789059002
9196.89053308157
8930.20637041936
8674.05857980248
8524.51776085371
8498.28048491304
8564.23366656485
8708.9547504913
8899.27785217247
9090.44379997942
9252.54875827165
9384.26391218382
9514.60753738656
9683.89526371934
9896.99500777862
10095.0142314968
10179.9650553259
10024.1510066264
9541.13959782046
8889.52565660001
8314.37882823845
8039.35827739678
8005.07755133857
8142.53740062541
8437.47676521878
8819.76324953887
9207.58970925184
9506.1199140671
9639.05499389661
9586.01767038115
9369.91682303651
9110.22304190038
8940.47944073939
8954.55857400532
9183.22968149263
9555.08465248253
9748.85877551966
9513.93129793852
8621.53146923074
7565.19944419656
7027.7228109056
6885.14503588881
7110.54184912637
7736.8995387449
9012.51089999829
11661.8022096715
16344.1532218341
19715.7980120562
17248.4237008051
9035.32631486854
9035.63407105358
9035.25376208904
9034.49382289902
9033.50039117596
9032.35843153706
9031.01404124771
9029.47205674477
9027.86313770742
9026.30550710762
9024.91002470469
9023.75881085337
9022.94123340025
9022.51174196379
9022.54028435201
9023.07082700247
9024.12908538161
9025.73795573211
9027.91624623517
9030.55808561291
9033.54676140211
9036.82911923371
9040.3780755333
9044.18809870064
9048.17042326571
9052.16424363657
9056.02082617732
9059.58129300926
9062.59646446445
9065.01545823707
9067.04734492899
9068.98752837229
9071.10488175896
9073.83224210143
9077.35507594619
9082.66816542627
9089.90478251589
9098.24218987496
9105.53223279436
9108.60324605339
9106.28413791497
9100.87369065521
9093.79771104296
9086.4265161619
9081.34986665317
9079.93935510114
9082.08092065534
9088.92705025845
9104.22258774461
9129.65541412343
9164.15107832196
9206.46866596008
9250.35665594322
9287.22242550841
9309.76240412541
9315.61024079083
9301.74793326409
9264.84443998384
9211.05347419023
9153.49144687385
9104.05051275855
9070.17399503646
9055.3414695773
9057.89051955498
9075.40932840322
9106.16793947415
9142.19541433282
9164.19494199864
9173.59578258645
9159.10403799412
9119.64571100072
9061.42976027719
9017.76686098257
8998.82477819029
9012.41665326839
9052.50858996433
9110.08118244969
9169.43487469486
9215.75798409931
9241.7710054373
9244.25646498824
9234.41740429524
9225.90310991445
9223.4979987179
9223.13432995515
9224.53755986031
9227.41529713643
9230.44722040803
9228.33473634918
9218.49643437121
9190.03095086892
9133.89167557792
9064.56122613983
9012.93485799938
8995.06094234584
9017.066515258
9087.39029517424
9199.49516452594
9325.05308152718
9411.43818823966
9427.64840782308
9342.2115363753
9159.13662830494
8929.08895643724
8696.97443580293
8549.64149202434
8518.49058224831
8577.18860584444
8706.634000622
8882.25307218051
9070.99766650063
9242.31289376095
9390.2667639536
9531.05166271956
9700.85620923136
9904.48158122945
10071.4452190393
10125.92216235
9953.77557000111
9502.1629237495
8917.23096244713
8367.6298867607
8080.08631100515
8039.65779348031
8169.90977030993
8453.30431229083
8823.58379872148
9201.32339991806
9496.4844225537
9634.60439688715
9593.00539846813
9392.03119076779
9140.41705470149
8971.29584389342
8979.66739356337
9196.32789735228
9546.23256079668
9711.72140720455
9469.18460401893
8599.98037068844
7593.58210793781
7056.88778888625
6913.37437037701
7138.99667365157
7771.40829476654
9046.37830581497
11632.5814907606
15807.7667369514
18394.5043052341
15930.773673175
9037.23504835435
9037.15417224922
9036.90409517783
9036.28092580315
9035.33678973465
9034.19659216995
9032.82866915076
9031.24198811955
9029.49570512698
9027.69740803531
9025.9693403454
9024.41676083837
9023.17368348483
9022.3648319371
9022.13077327974
9022.57894089272
9023.74915189794
9025.58924676853
9028.11013220899
9031.22623336282
9034.7502378146
9038.5447261655
9042.51777103147
9046.65013938228
9050.90269591295
9055.1438841508
9059.07580025924
9062.47399510246
9065.16558576621
9066.87659223604
9067.50417774361
9067.07479053354
9066.10772156047
9065.74308926092
9067.21250512289
9070.92536631026
9077.90137324212
9088.10546539425
9099.51987573009
9109.00341799117
9113.14894479484
9113.02768435376
9108.54847822124
9101.51548289788
9094.19114844655
9089.71748204275
9089.1621759616
9093.08457041433
9104.66629003827
9127.62949204481
9159.84343174747
9199.71926860981
9242.39632632932
9279.02823811692
9302.56858072565
9309.93909100351
9297.63529875074
9263.61036638299
9215.16342957104
9163.61109910492
9117.44870991626
9084.49646400369
9068.12082371553
9067.87534803032
9080.56291953112
9105.57142650838
9133.39285967142
9151.16753935669
9153.48806584812
9133.77703534023
9090.03891114745
9035.94523245807
8998.30359066442
8981.81214894116
8999.23046316912
9039.21754734114
9092.87697515357
9143.1077776629
9180.75810024673
9200.04579225271
9201.34231251554
9196.95031144643
9197.78587006231
9204.68700621986
9212.3205436557
9221.406963337
9228.91148639384
9232.33247654812
9228.40749022799
9215.03671884719
9182.43822092249
9126.0481268681
9062.74483206953
9019.58475255018
9007.22555506613
9031.50159084479
9099.32232453871
9200.72882885024
9306.19749128915
9372.35978373122
9372.22961868687
9285.59946555057
9123.51326139454
8929.11462742178
8723.02724090247
8579.4316792896
8541.30806116808
8591.06979709015
8702.57982690065
8861.56366375444
9046.54785013354
9227.08568492027
9389.88292256105
9545.47295919888
9716.46675846104
9909.39032640321
10043.725081192
10066.283302746
9881.09719483945
9464.97232142701
8946.2408692743
8427.63639075756
8128.04787607579
8078.77111347345
8200.40319689002
8470.5237039284
8826.76512102618
9192.0499770506
9482.23534452571
9625.23976179395
9597.55608827915
9415.811410066
9175.81714976591
9008.88975977657
9011.32052168646
9213.37683244142
9534.52857063682
9670.94348043208
9414.61364760531
8574.55850731854
7625.37336545824
7093.71929823354
6949.43512865065
7174.07196886035
7813.46134837067
9091.81398955463
11598.6951500208
15254.6397900235
17239.5964083941
14842.3222614072
9041.46803952508
9041.47582804745
9041.05952595011
9040.59103925958
9039.83100991045
9038.84862538144
9037.60653232642
9036.12858452474
9034.40628258679
9032.51465123161
9030.56113985407
9028.65358536639
9026.94746717997
9025.61151893477
9024.84055895457
9024.80920285496
9025.65835907426
9027.44095660726
9030.02114609337
9033.105737439
9036.58396572854
9040.35258390505
9044.24164996842
9048.18220873658
9052.1273848846
9056.05996694959
9059.76136650347
9062.87723245281
9065.22149111758
9066.60492980347
9066.51270979057
9064.5399859636
9061.59194178232
9059.0969904823
9058.78813097637
9061.48738931784
9068.11232908162
9079.43387955748
9094.08647841238
9108.7478745488
9119.236514939
9123.33233783437
9122.17015314467
9116.38096197478
9108.49647967628
9101.42718605437
9098.30093790755
9099.97703966326
9107.72465832013
9126.23556311653
9155.1504633165
9190.86015625912
9230.14022556434
9265.10248602422
9288.51191510982
9296.79524749889
9286.43790450589
9256.76596865763
9215.19716247154
9169.55895307544
9127.47667702819
9095.87934909533
9078.94236175316
9076.0585093898
9084.65963497338
9103.64069059548
9123.69754323272
9136.80566136079
9132.31607346871
9106.01952815662
9060.82122047187
9012.17311294908
8979.39409333214
8966.62982868204
8986.6271058183
9025.80384865046
9074.5446602112
9115.8930588207
9145.45919189648
9158.88358411438
9159.89595992318
9161.26241156312
9171.26425936526
9186.50320898402
9202.33187768675
9218.50742443452
9229.63651986559
9232.59597793056
9226.80943377904
9208.7722629998
9170.51845615774
9113.55258090521
9056.36397070754
9022.28297062904
9016.18499463307
9043.42644244941
9109.14470837699
9199.29234782879
9283.06855729309
9330.26204092155
9316.71978412407
9231.97347536828
9091.96142346609
8931.02005413291
8754.41435047238
8613.80677971524
8566.95468886691
8604.71029681148
8696.87371725964
8837.47358782179
9016.56644905352
9204.84266319491
9384.28257426554
9553.89797081926
9729.35045708782
9908.46058979673
10012.167375012
10003.3369791548
9809.28273164664
9430.81962294654
8976.41283803326
8494.20983836011
8183.77916804602
8121.7898551099
8233.6828066673
8488.88160187162
8828.51583580924
9178.56129760223
9461.26133530898
9608.71568584475
9597.49732637154
9440.14780652925
9216.36074235903
9054.53057307373
9050.70080929141
9236.1033081043
9520.32578323451
9626.02409672841
9350.57527775206
8545.85508597654
7661.45592934857
7137.83684528991
6993.17589266872
7216.73090816662
7863.36163211329
9148.83545292499
11566.2929295687
14729.9450502536
16227.0851240279
13923.1063440129
9047.75457255087
9048.32398898718
9047.88160563846
9047.41896289315
9046.81360759236
9046.11224374034
9045.14049570509
9043.91681408143
9042.3998771709
9040.63948348651
9038.72452718244
9036.74879760936
9034.84732917953
9033.15874232412
9031.86191503719
9031.14785264752
9031.19127086454
9032.0564296584
9033.69516315413
9036.11235728415
9039.06880357427
9042.23206971175
9045.43859963103
9048.65123182437
9051.85634110308
9055.09943752961
9058.22064854599
9060.79858887369
9062.76855578705
9063.97047336262
9063.71605541029
9061.45871845608
9057.76446782449
9054.41287385462
9052.93338403629
9054.74101817288
9060.88645338296
9072.26704522278
9088.59436213848
9107.43603690094
9123.39357533467
9131.26133057267
9132.79182528326
9129.02553449182
9122.38263981882
9114.44245266882
9108.53857509023
9107.56250384127
9113.23277337608
9126.28765063129
9149.64872435583
9178.98120148361
9212.60452362498
9244.16495649451
9266.30082730355
9275.15704484396
9267.29402157479
9242.8419668265
9208.49976074049
9169.58072942158
9132.15445887698
9102.30566751532
9084.69010064407
9079.29250438003
9084.08178937613
9097.565268339
9111.88146972846
9118.84218579913
9108.47158237155
9079.79863678684
9034.74883173846
8991.78256251844
8962.44659177756
8954.50743446425
8976.00202997203
9013.62730985965
9056.6814451979
9089.87080876688
9112.17373926767
9120.7230596692
9122.0661423446
9129.30530821903
9147.50641716308
9169.92955661044
9193.57161046582
9215.360077803
9229.18750115643