/*--------------------------------*- C++ -*----------------------------------*\
  =========                 |
  \\      /  F ield         | OpenFOAM: The Open Source CFD Toolbox
   \\    /   O peration     | Website:  https://openfoam.org
    \\  /    A nd           | Version:  12
     \\/     M anipulation  |
\*---------------------------------------------------------------------------*/
FoamFile
{
    format      ascii;
    class       volScalarField;
    location    "0.045";
    object      rho;
}
// * * * * * * * * * * * * * * * * * * * * * * * * * * * * * * * * * * * * * //

dimensions      [1 -3 0 0 0 0 0];

internalField   nonuniform List<scalar> 
54000
(
0.287116509714347
0.287111366524362
0.287096846732977
0.287089633004738
0.287100317072925
0.28711525753781
0.287126422199307
0.287136006698473
0.287156523477925
0.2871932323118
0.287244126625979
0.287299966544918
0.287353785730366
0.287401267866726
0.287439491139225
0.287465092316824
0.287477874309434
0.287472456428943
0.287444605845019
0.287393874717047
0.287322978578438
0.287237481563199
0.287141651491708
0.287040924734569
0.286948957073611
0.286882808447647
0.286855650314145
0.286890753091682
0.287015437479225
0.28724845700956
0.287632045482023
0.288180404281141
0.288855274333082
0.289567140467383
0.290209218433958
0.290667247304751
0.290823806622596
0.290602529793343
0.290077419563769
0.289305924839316
0.288513615972888
0.287928652910432
0.287641262162248
0.287604620328726
0.287782802530605
0.288128328279407
0.288506291809371
0.288890781336815
0.289333627945483
0.289882166688065
0.290577247306961
0.29137926241148
0.292127230928089
0.292640230786273
0.292799542838742
0.29262292752936
0.291926083132232
0.290624086663052
0.288775711183995
0.286693074074289
0.284919171831297
0.283836937238855
0.283404652158609
0.28329815502196
0.283660353334946
0.284479413497117
0.285471782175034
0.286383058201297
0.286873518292012
0.286939992447595
0.286234895298886
0.284605233342764
0.282864155903617
0.282047624610712
0.282296143412572
0.283638181181327
0.285888105486431
0.288980761165492
0.292176856828773
0.294490684308986
0.295858954408337
0.296290286705099
0.29595876269681
0.295074582923932
0.294111356546633
0.293431872440807
0.293135944194124
0.293164751883179
0.293358421629668
0.293442899339328
0.293010785845148
0.291701366998463
0.28953682988842
0.287746236247771
0.287182428705024
0.288085197453461
0.290654270523614
0.294929382450571
0.299942090164542
0.304710128797141
0.307889378476037
0.307858618602753
0.302584529489775
0.292617229886806
0.284805653842468
0.281647334366656
0.281577217828465
0.283994075357148
0.288885240220406
0.294684637243896
0.299440571732584
0.302373122568456
0.30426492294669
0.306606913015612
0.310561672803782
0.316405734417246
0.323176753970671
0.328204186701935
0.326707598743082
0.313791957579674
0.290861892483356
0.275043175628841
0.269428995543528
0.269020829157296
0.272697686134723
0.280484628530269
0.290344142212593
0.299777428726786
0.306478605886933
0.308650507031825
0.305962083960246
0.299516352043471
0.292389807539367
0.287878406431839
0.287788094437648
0.292956976691704
0.301491240648245
0.306635485881439
0.299837926591472
0.276072314143134
0.245992007257881
0.232117528312282
0.227118724397392
0.230358057735849
0.242395943081871
0.268365016622069
0.321063860670444
0.437435672728624
0.640281129664425
0.705619744218587
0.287111325387104
0.287112781409455
0.28710371472676
0.28709792359576
0.28710326199955
0.287113431516959
0.287124024277764
0.287135152551507
0.287155723070294
0.287190424129778
0.287238406940734
0.287292096894624
0.287345097283366
0.28739282004322
0.287433069796546
0.287462995969389
0.287480084725935
0.287480647211763
0.287461833770415
0.287422207566257
0.287365163840002
0.28729545052172
0.287217823019696
0.287138802067625
0.287067057023933
0.28701536514095
0.286995602807115
0.287030296389119
0.287157345195613
0.287395224136637
0.287768369723029
0.288287542542137
0.288918823120356
0.289593303486053
0.290215485202759
0.290656428644513
0.290818593574686
0.290619610352077
0.290115486190837
0.289384975406499
0.288615493328769
0.288034001096636
0.287738427671639
0.287680526372011
0.287835764713729
0.288158046204924
0.288519462663904
0.288897908012592
0.289336747186125
0.289884185994411
0.290582824517582
0.291392614549459
0.292150541182014
0.292673794392069
0.2928392567759
0.292669857357778
0.29198212604066
0.290679366452516
0.288832704386763
0.286763052531582
0.285007149771146
0.28390424464981
0.283441754855553
0.283335687911492
0.283693456102609
0.284495811935008
0.285470451065424
0.286366345226346
0.286842702401124
0.286908367879199
0.286181355768009
0.284574850411192
0.282904918130325
0.282168320129365
0.282462260408272
0.283855501301394
0.286141034323642
0.289237381974639
0.292382777675634
0.294656060630209
0.296001732244018
0.296409969493201
0.296075996246933
0.295236530509435
0.294332166423188
0.293692050360282
0.293406584251399
0.293444364740779
0.293627458443579
0.293713722286719
0.293286095687876
0.29198867854228
0.289851987876476
0.288081734676672
0.287522052861261
0.288395659408773
0.290924121700922
0.295137534836062
0.300106937423724
0.304801727973364
0.307862337745803
0.307776226502231
0.302446544161542
0.29271083537458
0.284995848462346
0.281804404834987
0.281697037164241
0.284071627794064
0.288904041864009
0.294653990220932
0.299395118300826
0.302378131688139
0.304330157634054
0.306696544245922
0.310648307935535
0.31643799131478
0.323103932601036
0.327966250468983
0.326367901140927
0.313478695181
0.291006054283443
0.27526394612
0.269576623475885
0.269117461893627
0.272773026510898
0.280525126726315
0.290338422952048
0.299756476563873
0.306463445608117
0.308655865898348
0.306035383565752
0.299628705436226
0.292526727925237
0.287982317022125
0.287891931160088
0.293030119345738
0.301543763324399
0.306632450953226
0.299871346892471
0.276253814608547
0.246380749605938
0.23241736541509
0.227446978850517
0.230714764297741
0.242794486126899
0.268788615861457
0.321595626899998
0.436671430514505
0.635635667706401
0.720075567413466
0.287109061822927
0.287110944707861
0.28710739371188
0.287103920421626
0.287103898649602
0.287108523278492
0.287117277619813
0.287128998027179
0.287149210523494
0.287181608602741
0.287226416061227
0.287278006780905
0.287330953806659
0.287380402361608
0.287423576337632
0.287458065986527
0.28747957812294
0.287488011835045
0.287481479252353
0.287459226481938
0.287423946281732
0.287379857822701
0.287331331997953
0.287283031011798
0.287238578695365
0.28720709455778
0.287202531545251
0.287250481645079
0.287380385916967
0.287617364194571
0.287968962109551
0.288442359294837
0.289013616218818
0.289630190455573
0.290207911951976
0.290625101748032
0.290792381025706
0.290627616576719
0.290152244973111
0.289483870367819
0.288757653110625
0.28818838053759
0.287881429902981
0.287799949121881
0.287923571931444
0.288207675315949
0.288542302889326
0.288911524135607
0.289346490991641
0.289894008329443
0.290597000562737
0.29141244592371
0.292180677404906
0.292719867610117
0.292895922969744
0.292737438933058
0.292060412168657
0.290764282740426
0.288927365982397
0.286885316324606
0.285157339717349
0.284031625479142
0.283533908016912
0.283425996099565
0.283770581751249
0.284548222974804
0.285504188372062
0.286378831765028
0.286818088582864
0.286872987292659
0.286124440327886
0.284560259778481
0.282995230750844
0.282365125339007
0.282732891788414
0.284206921800354
0.286543678598485
0.289630248059952
0.292709009661119
0.294924314889166
0.296184993661727
0.296559573007229
0.29622394811451
0.295449232989002
0.294645054412866
0.294067163193512
0.293809999789286
0.293863412643624
0.294037219768414
0.294115085758915
0.293695465280572
0.292413611043683
0.290319223021819
0.28858449139836
0.288040177730759
0.288882824667298
0.291353490507782
0.295474112967269
0.30036428308946
0.304941727070948
0.307787031128845
0.307570673419644
0.302198564865086
0.29282012420537
0.285264099296511
0.282032835909099
0.281890733748181
0.284210904145331
0.288949945559175
0.294607097330038
0.29932335150437
0.302379014487934
0.304424010356347
0.30683141612855
0.310784322433696
0.316492012702252
0.322987333297237
0.327553643524679
0.325796336292645
0.312950115981268
0.291166210124417
0.275573325708113
0.269800121287554
0.269283203738951
0.272906727982727
0.280602186007534
0.290339718253246
0.299725226572602
0.306431411538534
0.308659756059294
0.306140321081504
0.299790225991191
0.292719480262562
0.288178020400424
0.288067775665632
0.293164014926181
0.301646651118288
0.306575203414304
0.299853485810322
0.276462696246511
0.246906171855683
0.232879950445787
0.227933326775763
0.231261721469319
0.243371182854928
0.269394060670649
0.322339219599838
0.435029400614932
0.618525127653782
0.695066566069068
0.287113371460894
0.287111792783056
0.287111533360235
0.287109211872062
0.287106319306221
0.287106545249257
0.287112184849716
0.287122843518541
0.287142016863404
0.287172090228688
0.287214042152926
0.28726386535603
0.28731712597431
0.287369619724298
0.287417586629433
0.287457739849233
0.287488836751798
0.287509581529735
0.287519436208983
0.287520163048465
0.287513357392862
0.287501661420085
0.287487982350968
0.287474290829532
0.287461863692455
0.287457566992084
0.287477066393292
0.287543717393478
0.287676653807719
0.287896625074326
0.288219178047679
0.288636385152675
0.289129505303703
0.289673623864052
0.290197621729598
0.290578617959045
0.290742537831124
0.290624623726395
0.290193352754957
0.289602568754567
0.288937672662048
0.288385427678581
0.28806703738048
0.287962629664644
0.288047465289546
0.288278291341055
0.288572394569279
0.288923880669988
0.289352622863658
0.289897771665905
0.290604815167028
0.291427555846533
0.292206303145834
0.292763778300123
0.292956108422725
0.292810110382656
0.292153217249495
0.290869749217939
0.289053265017312
0.287051672944215
0.285361351604172
0.284219892781142
0.283684257054469
0.283569661139398
0.283894380371372
0.284637443988016
0.285559662734507
0.286393366763954
0.286785913156003
0.286824744954069
0.286061357437055
0.284565961154661
0.283145884631488
0.282648368542283
0.283118983329642
0.284696680564288
0.287091296500194
0.290145120259004
0.293121558440432
0.295266927590968
0.296444283725428
0.296749710215794
0.296423796325902
0.295738671502793
0.295070212301995
0.294573027177447
0.2943561048479
0.294428266918399
0.294585158259814
0.294646963120974
0.294235522830221
0.292971089186784
0.290934346310106
0.289259600065877
0.288725096697002
0.289534139823424
0.291932441559694
0.295926884000664
0.300686182549049
0.305078291813309
0.307671684407873
0.307232536329204
0.30186996736453
0.292971237701474
0.285621763507651
0.282337234981744
0.282146350486639
0.284392501345705
0.288999398243182
0.294524482982477
0.299213763378893
0.302366804934985
0.304540761699813
0.307008172683576
0.310950014742913
0.316549370159593
0.322823814461924
0.326999476409463
0.324982717077355
0.312240446629823
0.291385505697162
0.275989546047153
0.270100231568403
0.269508411828524
0.273083763966733
0.280696261104612
0.290330205401286
0.29966642380614
0.306359342915492
0.308654775313259
0.306267396014211
0.300000185632799
0.292974644482347
0.288428706385889
0.288293897338991
0.293333850395603
0.301737504573449
0.306501165219492
0.299832511517747
0.276685048885823
0.247565280525625
0.233473985861037
0.228574575680901
0.231959255220531
0.244125187231232
0.27019573866907
0.323381929267071
0.433661951999203
0.594397557480161
0.626858275725484
0.287123389670157
0.287115593847773
0.287116729617357
0.287114542236601
0.287110136133993
0.287107132728507
0.287109905947119
0.287118695321909
0.287136275672427
0.287164111640585
0.287203654177559
0.287252735358505
0.287307477068939
0.287363618253548
0.287418035984883
0.2874684200186
0.287513920693003
0.287552839821245
0.28758545801156
0.28761328989371
0.287637965272852
0.287661347124749
0.287684088335063
0.287707008464855
0.287731206085757
0.287763715110036
0.287814813544515
0.287900136797339
0.288035028532585
0.288232681718732
0.28850360106455
0.288850016885087
0.289263293059961
0.289718858878135
0.290162296961431
0.290498929479132
0.290657884658566
0.290592400654483
0.290234017346033
0.289729257142289
0.289144231384001
0.288620158242748
0.288291651978665
0.28816735089444
0.288208791498953
0.288375285686581
0.288613182536931
0.288933504615251
0.289351570158802
0.289891299597322
0.290602481521626
0.291434306133183
0.292225155572502
0.292801162793837
0.293015295089326
0.29288268640034
0.292250394096938
0.290992175533112
0.289209566248945
0.287259784799986
0.285614846783632
0.284474613420949
0.283905510546118
0.283780372098612
0.284076277313114
0.284771086512687
0.285647246574032
0.286435265381697
0.286777269881239
0.286789397378895
0.286024770163971
0.284619440806289
0.283372833676861
0.283038251639381
0.283638857538609
0.285334848010105
0.287786855148308
0.29077955267564
0.293608382550445
0.295652555902608
0.296723067381954
0.296957246026873
0.296662079596797
0.296102772765574
0.295596371122898
0.295200250732237
0.295036212819157
0.295125847252631
0.295265569857024
0.295310134698951
0.294892381662285
0.293646634845707
0.291684289523844
0.290088676234756
0.289568415896792
0.290345772638222
0.292655565413049
0.296485810882883
0.301061319733977
0.305171383779881
0.307452213024185
0.30673123474143
0.301453311151833
0.293149542130059
0.28606010788168
0.282714641952997
0.282476291020833
0.284624355187367
0.289043872112755
0.294392520529958
0.299054194482708
0.302340789257035
0.304664181042761
0.30721806318884
0.311137793735813
0.316600192767147
0.322592444369057
0.326262681264996
0.323897661214275
0.311342100113143
0.291644366025484
0.276514439818615
0.270472252507716
0.269795892675621
0.27330400691478
0.280800397897477
0.290298549868658
0.299563726148717
0.306250563842233
0.308618574726807
0.306398446696189
0.300253982067974
0.293302887576218
0.288760852995044
0.288577271650288
0.2935487806068
0.301832290201625
0.30634083253693
0.299717317382491
0.276841862393951
0.248285944070787
0.234199093618416
0.229348979358641
0.232828744156761
0.245069889977855
0.271156644333305
0.324338933981566
0.429837297824877
0.556572861253671
0.534792135619687
0.287141466341192
0.287129477247839
0.287129446388741
0.287125840959907
0.287120984848269
0.287115916678015
0.2871156484867
0.287121935543106
0.287137651136045
0.287163781172096
0.287201824493211
0.287250806378204
0.287308139158512
0.287370276481123
0.287435140943706
0.287501188080378
0.287566138498938
0.287628451791943
0.287687945576758
0.287745350285411
0.287801831659184
0.287858839551952
0.287916959913905
0.287977777968599
0.288042367830051
0.28811423343267
0.288196817018299
0.288297585986889
0.288428861474391
0.288600584703754
0.288819915498487
0.289090876626251
0.28941280743097
0.289765176803098
0.290107856323927
0.290383822452087
0.290533955637631
0.290519693370003
0.290274611097228
0.289854984870326
0.289363236950432
0.288884404288544
0.288551782345568
0.288407240381895
0.288405928770036
0.288502943163469
0.288672213130364
0.288941761655639
0.289339577966605
0.289867789085665
0.290579862339411
0.291421870994289
0.292227452445729
0.29282313397454
0.29306439899576
0.29294770506027
0.292342151845646
0.291118106262884
0.28938550202279
0.287501322944416
0.28590435089772
0.284781212612084
0.284192522218592
0.284055734038116
0.284322719625738
0.284960447795785
0.285781121132016
0.286489001006407
0.286816616676293
0.286777844938021
0.286017783224035
0.284744187731166
0.283708330551109
0.283556767670702
0.284311406823321
0.286122349488473
0.288613707862902
0.291512688222068
0.294153892780797
0.296064291569867
0.297014964322124
0.297186080954511
0.296939912185622
0.296541983518529
0.296210115933447
0.295934666211792
0.295835357032984
0.295938539735521
0.296053713615925
0.296074026856025
0.29564082970791
0.294408459890909
0.292539739041145
0.29103898928694
0.290547444901569
0.291287784114079
0.29350067043641
0.297132709917672
0.301471156836102
0.305191189544621
0.307111587558577
0.306068146607039
0.300960986317662
0.293343165928537
0.286567786437133
0.283177885466296
0.28287642481867
0.284894780434517
0.289058131450042
0.294189107675703
0.298816085647507
0.302266352404418
0.304771374430265
0.307445556417164
0.311334214973764
0.316620684506762
0.322228280441815
0.325337908318799
0.322549446900313
0.310289328248463
0.291936302084288
0.277151180912008
0.270910449729664
0.270144990076271
0.273564242466422
0.28090584076542
0.290231550849224
0.299393278646774
0.306064796628374
0.308556408685771
0.306511513096112
0.300542684250311
0.293696000347167
0.289159772512088
0.288933318727336
0.293772363380268
0.301881413298594
0.306103831032496
0.299523588891378
0.276914960250077
0.249048513769834
0.234969438799212
0.230187032286182
0.233773018894527
0.24612265358623
0.272223077282614
0.325336622179362
0.424335965508544
0.518027369315848
0.477890553461765
0.287170936399097
0.28716647610267
0.28716107410843
0.287153901646304
0.287148054073514
0.287142114202961
0.287139845952753
0.287144078402232
0.28715802294224
0.287183283739634
0.287221331936327
0.287271852901693
0.287333791830289
0.287404492132731
0.287482127431158
0.287564610943307
0.287650244900363
0.287737593420719
0.287825470223431
0.287913598927409
0.288002471234662
0.288093244415794
0.28818659209369
0.288283955800587
0.288385369360716
0.288490846415516
0.288599638096466
0.288712051291564
0.288833897317495
0.288973696067677
0.289135783032588
0.289327609437219
0.289553113556459
0.289794452895236
0.29003026188332
0.290235406018029
0.290373290895789
0.290409200838405
0.290292395237711
0.289976260851946
0.289591456540273
0.289192631808398
0.288870492712458
0.288686090899237
0.288629934755734
0.288658684699585
0.2887553047432
0.288956702336832
0.289317791484033
0.289831079514699
0.290539788322704
0.291392557573161
0.292221217754664
0.292844945179485
0.293108983437287
0.293004552224146
0.292412095547821
0.2912211848884
0.289558226187744
0.287765143515361
0.286233114229723
0.285133847626782
0.284540122967455
0.284388158124881
0.284614736265142
0.285197577938823
0.28598190070581
0.286598530591072
0.286893305921307
0.286815578884155
0.286088140132485
0.284975413346892
0.28417509176276
0.284215623158784
0.2851518346808
0.287053854638506
0.289549712968566
0.292311758005974
0.294729680698891
0.29646027261997
0.297290158939336
0.297427886663881
0.297261047183669
0.297047449578386
0.296888337624629
0.296747445600398
0.296725625502297
0.296841624531523
0.296929210418403
0.296910176191042
0.29644283851939
0.295217411830351
0.293453124806606
0.2920676952348
0.291621321947204
0.292329920069643
0.294429249101317
0.297822846532998
0.301853789104828
0.305100347318931
0.306599654524376
0.30525018621693
0.300404227414411
0.29353364084208
0.287147812574827
0.283727089838787
0.283326640201645
0.285181115558811
0.289033584267971
0.293897351509839
0.298474332555301
0.302091909452124
0.30482615055603
0.307661664893601
0.311524329365401
0.316598303420005
0.321688350101988
0.324190777655283
0.320952082575441
0.30912954059138
0.292251621760138
0.277899076590588
0.271414664730365
0.270554854983916
0.273859686816029
0.281003266315764
0.290117074105814
0.299135876839622
0.305788164172911
0.308407917945419
0.306579126971443
0.300850724875315
0.294145702630052
0.289631012765552
0.289352698394245
0.293993824411131
0.301881236421612
0.305700890002222
0.299161820112725
0.276894825577791
0.249843163571706
0.235774242329996
0.23104950200173
0.234753700779497
0.247249080446378
0.27333386533622
0.326051908371546
0.417547645484035
0.486980026517402
0.44373725872912
0.287224960513366
0.287232209498118
0.287223642179328
0.287212898942217
0.287204328163209
0.287198329580161
0.287196164905759
0.287200006667779
0.287213790635801
0.28723995524294
0.287280049910696
0.28733433372927
0.287402433996761
0.287482333386995
0.287572314683782
0.287670539000969
0.287776262147939
0.287889109824206
0.288007047926154
0.288127462472638
0.288248993670531
0.288371575189122
0.288494962263639
0.288619215184801
0.288744190228805
0.288871382608442
0.288996069081944
0.28911334215726
0.289220637164765
0.289323940162397
0.289430139313951
0.289545843603849
0.289671372572327
0.289799177145582
0.289930911079806
0.290066048514115
0.290191049874759
0.290271339245234
0.290270000230678
0.290101139755376
0.289824952181691
0.28953411581909
0.289245156941512
0.289015446147017
0.288888042875816
0.288841134326916
0.288862704315723
0.288991401504745
0.289299092647838
0.289791412129485
0.290479282414441
0.291325746462582
0.292169170580738
0.292815178406186
0.293104347819245
0.293011640897084
0.292436820788326
0.291285303469764
0.289713556334395
0.288026257391504
0.286568095728536
0.28551956050256
0.284941420034067
0.284760004959591
0.284944804089846
0.285487079541905
0.286220898173122
0.286745251950558
0.287047760499016
0.286916005139883
0.286307656772992
0.285357507770101
0.284802003121917
0.285032451291951
0.286160354634475
0.288118218199195
0.29057256463666
0.293143016452738
0.295311261778217
0.296827233702872
0.297538144939015
0.297679403657194
0.297630846177174
0.297610887262863
0.297613289342575
0.297614477014025
0.297678755702382
0.297807365673837
0.297861024667803
0.297779520270376
0.297256894297798
0.296026236460871
0.294371331304942
0.293117767129698
0.292732557185569
0.293418007874154
0.295396723842245
0.298524490839623
0.302151919536876
0.304880542157455
0.305919574018592
0.30431010397486
0.299793794152865
0.293698773318282
0.287780711384488
0.284333805678694
0.283805507317578
0.285464634835025
0.288959636330764
0.293495102933532
0.298006454901346
0.3017906781363
0.304828030624449
0.307825523791528
0.311682481057539
0.31651395388082
0.320962130658525
0.322805418680385
0.319132135152772
0.307904184740024
0.292572748721508
0.278751830910265
0.271993366251064
0.271022829301101
0.274181194738979
0.281079986737405
0.289937915821977
0.298768958223341
0.30538560837587
0.308153988184985
0.30657751757382
0.301154731789924
0.294633043627983
0.290158640779121
0.289810156754
0.294239623888551
0.301830271734215
0.30514818113266
0.298562978808269
0.276765681326265
0.250698701273193
0.236596187090071
0.231885741384961
0.235693165452629
0.248357848859068
0.274454963436758
0.326386709159524
0.409882516943693
0.463001249072978
0.418330301142669
0.287330875335202
0.2873382777576
0.287331820605332
0.287321121718384
0.28731123631007
0.287306087169238
0.287305757202171
0.287311585083141
0.287327548562267
0.287356380081307
0.287400005988847
0.287458948746609
0.287533211042169
0.28762153222897
0.287722832419925
0.287835562798195
0.287958112604343
0.288089313685165
0.288228476763592
0.288372569328104
0.288518612242667
0.28866517618203
0.28881138613487
0.288956931653094
0.289099746076559
0.289236208453196
0.289362515462701
0.289474073905506
0.289564424861143
0.28963295558216
0.289683405713365
0.289720072171805
0.28974889938093
0.289780015835804
0.289820001828163
0.289893954535941
0.290004083297002
0.290130135749961
0.290225029930625
0.290220266282487
0.290089314157402
0.289887489743456
0.289642481081865
0.289389034349245
0.289185749899662
0.289060892565075
0.289008505945111
0.289055666216262
0.289290798019378
0.289747563491319
0.290396048243211
0.291207284129499
0.292037080112647
0.292689639855804
0.293009489090478
0.292943392279326
0.292397097909364
0.291302261450698
0.289836405593377
0.288281623380875
0.286900762961036
0.285888666242271
0.285314008964195
0.285112232262637
0.285272269320074
0.28579893440818
0.286513584578029
0.286996532871362
0.287290687648741
0.287184410523947
0.286684366238084
0.285926213135329
0.285624635101332
0.286017987634404
0.287311549729247
0.289287187019417
0.29164843399307
0.293972801299249
0.295872088354511
0.297156922481676
0.297755514050119
0.297938034932154
0.298041677036619
0.298208113183785
0.298363813200024
0.298515266193835
0.298666927924082
0.298797356809067
0.298806483268871
0.29863767619582
0.298028449074871
0.296779445293038
0.295235636505998
0.294127974505891
0.293819581038274
0.294493236341352
0.296344886044014
0.299176700838832
0.302318820845525
0.304516365643972
0.305083406746256
0.303287561910854
0.299147019197451
0.293841789339742
0.288438480011987
0.284992199172218
0.284296060206819
0.285727528117489
0.288813062813897
0.29295796442785
0.297379673908398
0.301343330622912
0.304724383137881
0.30791951956855
0.311766353553934
0.316347519634461
0.320054843622209
0.321183962367387
0.317124502255571
0.306626753057765
0.292872541871863
0.279699606464181
0.272659570366093
0.271542130260705
0.274516733740738
0.281119799743024
0.289679936689725
0.29827292520735
0.3048238189996
0.307733489998165
0.306457382388718
0.301426848300967
0.295145492157317
0.290737208229948
0.290306992394154
0.294507105602831
0.301620759419524
0.304370260586928
0.297685083609494
0.276479346745963
0.251621971451013
0.237551607753802
0.232833642978523
0.236668922301893
0.249511890625244
0.275615525161144
0.326368417148609
0.401298490335188
0.44263667670811
0.39734089526424
0.287505523966726
0.287504290897444
0.287501015998125
0.287494018224154
0.287487113308425
0.287485159538719
0.287489163414274
0.287500904647786
0.287522500605324
0.287556465518589
0.287604704502345
0.287667737459865
0.287745949569427
0.287839021975948
0.287946876580553
0.288068910484131
0.288203479197414
0.288347512389079
0.288500138527953
0.288658878710028
0.28881926829977
0.288978027849838
0.289132771883599
0.289282799169295
0.28942695546244
0.289562584953003
0.28968215171545
0.289778483816118
0.289846885148098
0.289881919470227
0.289881714921155
0.289845841280362
0.289786795254374
0.28973213543677
0.289709435709983
0.289732026094638
0.289826192122526
0.289987769529327
0.290169384366386
0.290301369626401
0.290310208217845
0.290221505449315
0.29002824134279
0.289775222402058
0.289515039837436
0.28931626406399
0.289198616217327
0.289169955543338
0.289308422154231
0.289699799128853
0.290287762783148
0.291032150194132
0.291821357879395
0.292454562547502
0.292783837651727
0.292749323031046
0.292246904517821
0.291235859753047
0.289909891502881
0.288520152477954
0.287243884836244
0.286280258837562
0.285714331069859
0.285527941741205
0.285686144135039
0.286206885927664
0.286885773341657
0.287417826160987
0.2877163426346
0.287685108716753
0.287253959485649
0.286714976723505
0.286651424626777
0.287177833138813
0.288586068171632
0.290533421092545
0.292746796417443
0.294785973451463
0.2964058483059
0.297459596420576
0.297960346252652
0.298205568358563
0.29847516051786
0.298820036931386
0.299128580336149
0.299429138178006
0.299661572508315
0.299779133019077
0.299723100961598
0.299442167653056
0.298707538362026
0.29742324725554
0.295986840615976
0.295037084905626
0.294820083041028
0.295497238049346
0.297227542296287
0.299746608964644
0.30235606649698
0.304015397728857
0.304132149483795
0.302225435027611
0.298493574431874
0.293953227212751
0.289108308610547
0.285701987822997
0.284790004333725
0.285954046194103
0.288568920533236
0.292279137687448
0.296570255385534
0.300710180566593
0.304404379787696
0.307904329418593
0.311747162034478
0.316046488534438
0.31897981069435
0.319350368192442
0.314983162304714
0.305312155802683
0.29312595924529
0.280733181168578
0.273428690146311
0.272099991533795
0.274855323603743
0.281120337351226
0.289329791134218
0.297625287837004
0.304067100809934
0.307106824224876
0.306178921598584
0.301635430698796
0.295676745746639
0.291369573237433
0.290849860187089
0.294752273117792
0.301227886117258
0.303384159161274
0.296459805212884
0.275995225925755
0.252554328771503
0.238649633794385
0.233927961491041
0.23774473394719
0.250769396393637
0.276951468646907
0.326127321567195
0.392149555734865
0.424258796238364
0.379393440317141
0.287749516343531
0.287750240356071
0.287743779681989
0.287741472008495
0.287740832394461
0.287746244226649
0.287758935642564
0.287780897183071
0.287812847121783
0.287856407336724
0.287912683946102
0.287981609503289
0.288063325097817
0.288157776051663
0.288265444076598
0.288386703201695
0.288521850435369
0.288670085346178
0.288827241022468
0.28898631629965
0.289144889674076
0.289300548767953
0.289448984309541
0.289587963487176
0.289717100791498
0.289836507364506
0.289938949938422
0.290014011757733
0.290056771019454
0.290064498735827
0.29002625398418
0.289933572336975
0.289809925005286
0.289689470209315
0.289610620017806
0.289594223077402
0.289666630283258
0.289845522180027
0.29009545433833
0.290340988191302
0.290488089693923
0.290487333578201
0.290366843510332
0.290135330853511
0.28985572175475
0.289592413524221
0.289411835750784
0.289327993484812
0.289369516710071
0.289645969981679
0.290148140087465
0.290786649552861
0.29148836569128
0.292074514925161
0.292391459078165
0.292376417781318
0.291930286334264
0.291042859680737
0.289904627922018
0.288682947105628
0.28754104347025
0.28665586792748
0.286152055309482
0.286018691330533
0.286213093349345
0.286750974871555
0.287411473262696
0.288019475883945
0.28836638127781
0.288366857730999
0.288050236322317
0.287733864463273
0.28785299552592
0.288503736901918
0.289951060275049
0.291819187445819
0.29383682257475
0.29557853424262
0.2969204809437
0.29775487225863
0.298173985658709
0.298491187103789
0.298928297679063
0.299432694640886
0.299901790002906
0.300336358208101
0.300624277459753
0.300705427194731
0.300571104278656
0.30014242236106
0.299239411641706
0.29790509287139
0.296572678587056
0.295794891182133
0.295685949601091
0.296383331845342
0.298003073562037
0.300191945264257
0.302228589286847
0.303385885686989
0.303116202078634
0.301163654374731
0.297872008429222
0.29405561988584
0.289844788526125
0.286456183804052
0.285288123618824
0.286113625175023
0.288221499003564
0.29145459051646
0.295556030101783
0.29983634424915
0.303882772649864
0.307677938814545
0.311582334737943
0.315528528227734
0.317746304475123
0.317372277930884
0.312784131864094
0.303993111820667
0.293329219292247
0.281844706574107
0.274310413485229
0.272679723059391
0.275188766505291
0.281074930473089
0.288870808149091
0.29679826768027
0.303066661530256
0.306219740857078
0.30569284059375
0.301744846099525
0.296217298477594
0.29207481235394
0.291449619276004
0.294994589528569
0.300659320358263
0.302157625453091
0.294866660695549