/*--------------------------------*- C++ -*----------------------------------*\
  =========                 |
  \\      /  F ield         | OpenFOAM: The Open Source CFD Toolbox
   \\    /   O peration     | Website:  https://openfoam.org
    \\  /    A nd           | Version:  12
     \\/     M anipulation  |
\*---------------------------------------------------------------------------*/
FoamFile
{
    format      ascii;
    class       volScalarField;
    location    "0.045";
    object      T;
}
// * * * * * * * * * * * * * * * * * * * * * * * * * * * * * * * * * * * * * //

dimensions      [0 0 0 1 0 0 0];

internalField   nonuniform List<scalar> 
54000
(
109.822194781171
109.821202903385
109.817905966534
109.815012557686
109.813572708747
109.810799331103
109.805508806906
109.798405727268
109.79125636128
109.784510395465
109.778114315489
109.770958686868
109.762292485413
109.751791981843
109.73923933409
109.724355883146
109.707143528168
109.687284512457
109.664468477395
109.63894395304
109.611402789381
109.582482650924
109.552429948112
109.522106590312
109.493387760842
109.468546116873
109.450208773281
109.44107622781
109.444490501761
109.464359045898
109.50686261889
109.573581248522
109.658981758028
109.750620541203
109.833539736026
109.890649139622
109.905554036357
109.866799145251
109.787104926228
109.674569462207
109.560901143105
109.481366516157
109.448023010206
109.457797207117
109.506803554554
109.583772558031
109.669407601604
109.759312906702
109.860631025578
109.980268137133
110.124921974751
110.288571059484
110.447662445398
110.57585658964
110.645445385836
110.67415803549
110.653234250356
110.550235216501
110.373340057549
110.185560553919
110.067247874938
110.067814613563
110.196006571393
110.407195374931
110.711066833278
111.110491961848
111.563015001093
112.015700211382
112.390530704019
112.649753286115
112.757766860571
112.657445774797
112.404264346014
112.193281974181
112.043008350229
111.923446040805
111.825377097799
111.7727333725
111.692421691197
111.502465139141
111.248992373607
110.936098810568
110.58605474723
110.227496635437
109.909405200357
109.675348960094
109.532494607914
109.46315958199
109.441945764854
109.410743677614
109.291992543628
109.038834173527
108.645568273626
108.27406040408
108.067669371414
108.022874788817
108.162542000485
108.525075714408
108.960711530514
109.336720755599
109.504477845218
109.19398770838
108.149525236749
106.489233849403
105.134780916768
104.482797649753
104.295808365557
104.476442893963
105.045356862189
105.770740317871
106.363689510352
106.719627838692
106.942269326966
107.234877327772
107.756614945876
108.538850696889
109.44883096983
110.129543699676
109.966280540184
108.290161904196
105.160454553697
102.935824783446
102.164362608591
102.179564016188
102.822012185396
104.06788765559
105.616488306522
107.109021090924
108.242817521586
108.751736102207
108.641324383955
108.066627064239
107.406194587032
107.114821294305
107.566173670472
108.916288508878
110.809296838653
112.264512498922
112.169303831052
109.653719801821
105.775355126246
104.332179529889
104.414587326078
106.155019963358
109.644232703029
115.828946677124
126.584186978191
146.346406556825
177.716299296352
196.323864689117
109.809222339019
109.809198564287
109.806873334731
109.803955085831
109.801334368764
109.797571904506
109.791842815915
109.78448777401
109.776718483738
109.76892416427
109.761140688435
109.752520555572
109.742418619366
109.730488865456
109.716686047159
109.700867901241
109.682935709522
109.662618089745
109.639687935347
109.614207022762
109.586742794553
109.558109803479
109.529074658748
109.500499632958
109.473405960288
109.449436442886
109.430956527391
109.420700279745
109.423497258819
109.443037639773
109.483006487758
109.54471630803
109.623574177764
109.710013112424
109.79058925977
109.847099728751
109.86529453111
109.832662601068
109.758630420063
109.653478998179
109.54537924055
109.468949235661
109.436729515955
109.445123613635
109.492072517182
109.566680296678
109.651118129998
109.741725672573
109.844375206146
109.965871387555
110.11243978344
110.278277652043
110.440311178585
110.572297408945
110.646220269758
110.679248059013
110.66277462713
110.563807360829
110.391272356841
110.208813543885
110.095613498502
110.095363373487
110.219664138384
110.429475831531
110.728867022415
111.120635334022
111.563752563582
112.005620580821
112.364519268921
112.609490783137
112.700495082165
112.585913346449
112.322583461898
112.103573704184
111.939963964436
111.808077200841
111.698358670501
111.633472342778
111.543794321704
111.356239677284
111.108253802394
110.799122367033
110.455070956956
110.107203930536
109.801805475875
109.577138160655
109.438552443916
109.371962624996
109.350180572606
109.318766208438
109.199379515191
108.948220321289
108.560101161153
108.193136532118
107.989128849769
107.942753433696
108.079576904813
108.435950200393
108.869027194444
109.240503727402
109.398537235149
109.09437082715
108.060946249046
106.450962256848
105.120407699317
104.473010490754
104.288616262726
104.469931515862
105.037868252326
105.75933062535
106.355930238741
106.721513989545
106.955050832723
107.252962833481
107.775402241921
108.552415141767
109.450455761665
110.110722577093
109.934243749299
108.259942054259
105.194778427097
102.98146651135
102.199434675133
102.206824761536
102.845048230363
104.084521988335
105.625342662894
107.11395422799
108.246685982049
108.755216315418
108.650101646565
108.075378142416
107.413181818563
107.113744800918
107.555904520237
108.891056177738
110.766003080539
112.194083287668
112.083650305508
109.555245665603
105.69457053485
104.233711791427
104.318837771916
106.060671244172
109.546150410035
115.696555425326
126.389300494455
145.980192474077
176.365712034937
195.044846936614
109.790559066801
109.79063480046
109.789257361566
109.786437219313
109.782619876079
109.777703346645
109.771249788875
109.763265988068
109.754437086393
109.745053203059
109.735277628826
109.724545750883
109.712355329773
109.69836565239
109.682544571428
109.664926625044
109.645249518451
109.623394852629
109.599549007741
109.57399429276
109.5472638753
109.520152661545
109.493355014415
109.467369231583
109.442420719613
109.419703284048
109.401780742004
109.391831684594
109.393629711044
109.412021808188
109.448185186991
109.502964659444
109.573365226794
109.652216868063
109.7278180356
109.783143443155
109.804795306144
109.780275808538
109.713157391139
109.620461034856
109.522045300857
109.450580089869
109.419714928871
109.427366985574
109.472007633858
109.5428322548
109.625046788846
109.716275774715
109.820509793708
109.944328798807
110.093862643855
110.263345586252
110.430192147597
110.568190575324
110.648747147933
110.687568920029
110.676907890696
110.584856597908
110.419498629214
110.245815120568
110.139868472595
110.138250080157
110.256832329619
110.463898154241
110.756936381184
111.137917958351
111.567523932628
111.989783066773
112.323629936476
112.546383654882
112.611839612932
112.473010601869
112.19462036857
111.963166550921
111.781252972051
111.631540045767
111.504523557284
111.421944678844
111.321598702828
111.135918580794
110.886621528896
110.58315938587
110.249890389176
109.920805950556
109.637510015625
109.427553564576
109.297117024945
109.234861473883
109.213081589241
109.180027824689
109.060810547585
108.813004126632
108.432985270916
108.073692645554
107.874695449819
107.827529731811
107.960539722021
108.309251006999
108.739043276885
109.106026394307
109.246883297379
108.944320986257
107.929492296707
106.387948755557
105.098230131086
104.458458676547
104.280080286182
104.463808853883
105.026969088519
105.744602053494
106.345215762316
106.725199712028
106.975467077191
107.282700421892
107.807820020883
108.5766922956
109.455575318105
110.078311345357
109.881318889712
108.210744860425
105.240944712852
103.049609985502
102.254905971418
102.253020342505
102.885007824543
104.114681813454
105.642590250075
107.12538047887
108.254555525304
108.764301503405
108.665115277184
108.089947197485
107.4248906948
107.119176626861
107.542255835127
108.853518355038
110.705403529961
112.089192388877
111.955339841279
109.411904444366
105.577087479331
104.095031259852
104.17777759341
105.923044408288
109.399845501742
115.507192264858
126.123515641327
145.388704098641
173.354049308321
188.31416616233
109.765962350301
109.765556467128
109.764588397976
109.761785767727
109.757079557418
109.750976919271
109.743552557823
109.734443978376
109.724034843997
109.712516366216
109.700166933424
109.686660816367
109.671618176875
109.654857909295
109.636468853942
109.616402057521
109.594605546443
109.571160158933
109.546450397937
109.521039446565
109.495438482159
109.470239180415
109.445898724737
109.422536727515
109.4000205596
109.379382934132
109.363031465677
109.353890678123
109.354631288619
109.36956459934
109.40133933329
109.448375484841
109.508380325806
109.578387628387
109.648493506787
109.70138966914
109.725444269247
109.71190119159
109.655924601695
109.57915143383
109.493911211958
109.428568102282
109.39932451079
109.40661881792
109.448555961894
109.514369611251
109.593092292588
109.684312685197
109.790352090548
109.916495453826
110.069541774924
110.243934637055
110.417384437059
110.563377366433
110.652660746374
110.698331653388
110.695922853236
110.613369506382
110.458049810074
110.295974633724
110.198763656057
110.195805327998
110.306621309075
110.50855566087
110.792405203702
111.156887636949
111.56601806602
111.959395566726
112.258298605478
112.451010110441
112.481150558766
112.309696263569
112.011258134532
111.762748878863
111.557550520635
111.384244049461
111.235631333394
111.132546285159
111.019818871802
110.837740250555
110.591637932058
110.293465859493
109.977058282953
109.673804077973
109.419825474229
109.228761776456
109.109352001773
109.052525291295
109.029806760732
108.994171554216
108.876145676058
108.633238752259
108.264631530724
107.918007616333
107.724800803594
107.67814829851
107.807766064811
108.148159582923
108.572668217215
108.932619712398
109.056060955756
108.746886455738
107.761462798477
106.310380187889
105.073107801246
104.442617937533
104.272385562857
104.459899952371
105.015092760373
105.726344624873
106.332406380872
106.732137846785
107.005397346914
107.32698007546
107.855472097372
108.613659405094
109.466612438284
110.041547191646
109.811700046244
108.152768348457
105.309504974386
103.146840021855
102.334962852552
102.321229537577
102.94494877782
104.161812530466
105.673149361219
107.146690526972
108.268583509076
108.780211233156
108.688516360206
108.113089940847
107.444649786681
107.128256782499
107.533723581628
108.806547269338
110.625353183929
111.959322653987
111.798375459384
109.245484609086
105.444261970852
103.92502200973
103.999685729476
105.740498174163
109.211052680077
115.276371075029
125.821169506302
144.6946150776
169.354095973707
177.421652906328
109.735140631459
109.733634988597
109.732773408377
109.72985809277
109.724514031923
109.717181973789
109.708350941876
109.697633397538
109.68508615083
109.670875100108
109.655387038346
109.638563325396
109.620261425119
109.60031532449
109.578832187811
109.555939407845
109.531933396942
109.507084520491
109.481820361866
109.456692517
109.432204141519
109.408837396806
109.386782296991
109.366034493273
109.346538215871
109.329213060327
109.315576046797
109.307666005457
109.307301037565
109.318022536351
109.342495841155
109.380464978008
109.430904590881
109.490801815536
109.552719258985
109.603388486801
109.630453033308
109.629415962942
109.590648892284
109.532280075125
109.464065862104
109.407519030943
109.380655588348
109.387453872293
109.42544260301
109.485290201389
109.559087517426
109.649241902869
109.757261498052
109.886037150831
110.043335556918
110.223516667973
110.404403496911
110.559850016456
110.65939077489
110.713221388913
110.720696107446
110.650279887102
110.507699797764
110.358985366041
110.270695735448
110.26697337042
110.368351645356
110.561630666678
110.831216115359
111.171390857132
111.55249196245
111.909480309324
112.16256671714
112.316815871094
112.299543997695
112.085920211153
111.763329470101
111.493959406275
111.260536097473
111.059693866386
110.889260975674
110.766659558935
110.640918862227
110.46291088936
110.221384225065
109.932634006616
109.639668131825
109.369856290117
109.150906698608
108.98322783198
108.877773663162
108.827331417789
108.803805162585
108.765513504215
108.648185449232
108.411823154071
108.058298718005
107.728942554188
107.54435269055
107.501193094684
107.629115902437
107.960823712543
108.378039488184
108.724069034215
108.825950712132
108.50483628609
107.56191334894
106.220939346358
105.047851400511
104.429163237042
104.268650444226
104.460654779901
105.00670824543
105.706070117929
106.319146062752
106.746481115527
107.046344618108
107.388345822971
107.921519772319
108.667067249155
109.486602501981
110.000459613623
109.726952011351
108.089692842026
105.402730914733
103.278227030038
102.443793560792
102.416924324076
103.03006840798
104.230019323814
105.7208171441
107.180897016748
108.294888411498
108.805866001623
108.723241024175
108.149263389889
107.47817700977
107.149710126673
107.534046333399
108.76301356572
110.537983171148
111.805772760611
111.617661209022
109.066085278305
105.316833330251
103.754138419507
103.806044518139
105.537316162866
109.000079331954
115.020482291011
125.466501624144
143.557439961431
163.594984637398
163.776169805494
109.698891723346
109.696672010163
109.695455607456
109.692220134644
109.686472569052
109.677997576558
109.667417046318
109.654598277622
109.639387195187
109.621949105512
109.602714122355
109.581860406186
109.559508120936
109.535669227753
109.510631407433
109.484912374225
109.458904230536
109.432898893896
109.407287814432
109.382503283521
109.358976825334
109.337124285497
109.317141643167
109.299236079442
109.283433224394
109.270093889419
109.25964886657
109.253176624609
109.251698213876
109.258180138738
109.275812066897
109.304924178077
109.345367330519
109.394318851557
109.446302669293
109.493510468764
109.525656535004
109.53739204235
109.521024372647
109.482402139449
109.434271874974
109.390577893951
109.368738962938
109.374986357493
109.408086347746
109.460695662358
109.527830647556
109.614597507233
109.724234082501
109.856041600625
110.018418765702
110.205191899443
110.393735734044
110.558263318237
110.670144461091
110.73418547262
110.752489192791
110.694616977893
110.56665643637
110.43190867204
110.350974794965
110.346029281031
110.436500048895
110.616647852807
110.866698889935
111.178316563335
111.520690572303
111.826772342094
112.028644234759
112.128162725196
112.051430178814
111.790296953437
111.444142248624
111.149409342313
110.883992794719
110.655191359832
110.466582692426
110.328642506033
110.191367321548
110.018021861441
109.78398258562
109.509991256663
109.245767611112
109.016616061343
108.836494149412
108.696748525495
108.608174852996
108.565258380783
108.540055647524
108.498397519707
108.382665712566
108.153437122549
107.819204346214
107.511594982036
107.34035571553
107.303841171515
107.434300806545
107.757852135016
108.165539027943
108.486154936376
108.565223111943
108.228400803993
107.34167313865
106.12448813463
105.026183876255
104.422510984039
104.272478201278
104.469608001238
105.002166653664
105.684859227457
106.305620726253
106.7676843706
107.100952885555
107.469100859227
108.008531608771
108.738707863307
109.51323079885
109.959359405658
109.633057670002
108.031369923697
105.524647028714
103.44918448358
102.585457866612
102.544846474268
103.144486860688
104.322239495281
105.787637004381
107.229613968351
108.333420584754
108.849215938041
108.774522480374
108.20526176117
107.531574404781
107.188215122763
107.548780065185
108.735037163054
110.446158694993
111.642906967521
111.429517256791
108.887815226505
105.220960853077
103.610681233718
103.628404284461
105.338707183332
108.790874428335
114.766574903637
125.133908456055
142.121007135967
157.594838990857
154.502972283219
109.657307786388
109.656376787645
109.654226654189
109.650210624678
109.643914896464
109.634455684039
109.622057935417
109.606730721947
109.588378400154
109.567209191213
109.543657469473
109.518077200215
109.490885701897
109.462507366727
109.433580192112
109.404723666492
109.376491025842
109.349293612946
109.323415294701
109.299150005125
109.276815787651
109.256758065298
109.239206293538
109.22443451173
109.212377490686
109.202841930206
109.195640347998
109.191037115069
109.189271628427
109.192347593985
109.203285934212
109.223965755894
109.254853269266
109.293071434908
109.33492979177
109.377750479
109.416421874257
109.442017863966
109.449083545699
109.432176769611
109.406462697089
109.381139829123
109.365549521214
109.371371032501
109.400647785204
109.445621499685
109.504528871503
109.584666692407
109.69356624774
109.828480149764
109.996066588706
110.190052555216
110.387635144369
110.563495716082
110.689163193139
110.763017773981
110.789347955197
110.742417178267
110.629203449068
110.508728398172
110.434807652981
110.426212821018
110.503303689322
110.665111039491
110.88736306186
111.166374614671
111.461764483933
111.702443210294
111.840661747979
111.871294233453
111.729923245857
111.416053034668
111.046697023606
110.722747561658
110.42624207872
110.17444752595
109.974720664111
109.826357015796
109.680070235678
109.509531971658
109.287188316269
109.036289678459
108.80744423251
108.623870693559
108.48414657389
108.376051681506
108.307566913158
108.274036345673
108.247026734457
108.20113080892
108.087191336381
107.865319325185
107.553672710106
107.273419298729
107.120999234199
107.096657749797
107.233201439924
107.547773802289
107.940604317562
108.227946777759
108.278470437807
107.929789845976
107.113176368205
106.028736016571
105.01420741777
104.429501998911
104.292100060236
104.492076656881
105.002349179542
105.66519250067
106.293560191763
106.792972946538
107.172644498515
107.571124448648
108.11939724952
108.832286737618
109.546526868377
109.918460821408
109.536212222741
107.989111401502
105.678687495445
103.664226961404
102.764395717887
102.709280913136
103.29187082856
104.441729691617
105.876568292697
107.295417783632
108.388054816385
108.908659814671
108.848982633901
108.289173638077
107.614404141201
107.254402494507
107.587192784126
108.727917677234
110.361934925159
111.473546698828
111.231748352638
108.711473232013
105.164990272713
103.526015845271
103.507522462777
105.191568911955
108.630575175474
114.553087253153
124.809402855825
140.5551070369
152.501855882599
148.403858551842
109.611642233194
109.612609196107
109.610059912871
109.60518395781
109.597890790203
109.587299947262
109.573048453151
109.554976391854
109.533122547208
109.507804295527
109.479509257295
109.448791474617
109.416410336729
109.383119480646
109.349817095265
109.317347873886
109.286578464391
109.258216466399
109.232484220529
109.209327099754
109.188752443662
109.170893705302
109.155846228939
109.143714251939
109.134455252964
109.128137300126
109.124050154919
109.12185314482
109.121187354512
109.122865584125
109.129492201269
109.143664126583
109.165532410819
109.193668806476
109.226773648322
109.265369171365
109.308096367529
109.349232304006
109.379365020415
109.387452556622
109.384416408996
109.378914362016
109.373285386803
109.379030508765
109.402984294661
109.441380546659
109.493582596101
109.565002043397
109.668247546983
109.804190764319
109.974032499589
110.173101752315
110.37887241789
110.56462726164
110.70230389255
110.786683010943
110.821916377489
110.787191735721
110.687729020536
110.578704060551
110.50964468297
110.497146398076
110.559125421752
110.695900185127
110.889856888695
111.120321341675
111.353163579445
111.513635911983
111.588884922072
111.536735316044
111.328256948494
110.959977400564
110.566500040225
110.212505627535
109.892939235181
109.628353733404
109.426501186732
109.271868617545
109.120413096864
108.952073361435
108.744825304554
108.52549417857
108.339623653057
108.203924884883
108.104203112394
108.030245652686
107.984584546877
107.962044322141
107.933769161494
107.883239605616
107.770869162513
107.556141065092
107.270052327194
107.022790684877
106.894493646532
106.888117011767
107.03506449381
107.340514876068
107.708379038186
107.959322560611
107.976891650199
107.624376718828
106.888856039602
105.943279620684
105.02065422234
104.461287056846
104.333623924458
104.532237303389
105.012960556419
105.649624439081
106.285364308758
106.82419083422
107.265327476345
107.696180794779
108.255941589898
108.949324132635
109.589057422178
109.880220262959
109.44378717409
107.968908030462
105.866551401569
103.926458995339
102.985746654608
102.913824848367
103.475169844119
104.591578133981
105.990261858035
107.38028109458
108.459793227385
108.988510081753
108.946171266141
108.407691101883
107.736188754609
107.359220867357
107.657584216886
108.744760274235
110.302611465381
111.315859479108
111.029428976075
108.539103746498
105.14348029023
103.495372648338
103.45538440736
105.116225525579
108.543324344809
114.416527800678
124.493666080549
138.936732521187
148.370051662967
143.662737970098
109.565946905521
109.566856139675
109.564706652359
109.559570842596
109.55129284689
109.53940719103
109.52322896106
109.50230740127
109.47671300492
109.446842035619
109.413310441119
109.376921652549
109.338765167645
109.299987120353
109.261850905815
109.225480951148
109.191801453759
109.161531970545
109.135158923131
109.112547079046
109.093408947765
109.077638151672
109.065233341796
109.0562398294
109.050362141234
109.04702351694
109.045862485398
109.046694011996
109.048949996419
109.052248198115
109.057695449292
109.067226713356
109.081837175521
109.102917542105
109.130217174156
109.166236756199
109.211726170809
109.264404334504
109.316198810142
109.354862680259
109.376372644942
109.387491667789
109.394901256929
109.40195893317
109.417696941809
109.44795691017
109.49361452752
109.558273834158
109.653449429335
109.786425122985
109.955153340517
110.155172713182
110.365803770054
110.558604169509
110.705949885711
110.800483021995
110.842307676912
110.817494272828
110.731305149212
110.632791690444
110.56483086621
110.543377609102
110.584888944085
110.694302273146
110.846176080812
111.016901173757
111.178121635987
111.258120536455
111.258218446916
111.123569046034
110.837828068124
110.4223044392
110.006257775887
109.624215675631
109.295486383802
109.031954549792
108.837021642351
108.679959987376
108.527828756374
108.363594322424
108.174830473413
107.993496502415
107.856405181005
107.768106762745
107.707621469637
107.669354131771
107.648252180484
107.636617715102
107.608697155554
107.554737558307
107.441806458057
107.234884503238
106.977405088403
106.76869889253
106.668803912145
106.685156576739
106.845391388231
107.139663286258
107.473199481384
107.686040008575
107.671023339433
107.32703884611
106.680221355536
105.878465903853
105.057979864325
104.527119330188
104.401288034156
104.594037148649
105.03825705048
105.640849269081
106.281536595371
106.864420149413
107.370450164252
107.849380186371
108.416373025111
109.089101669226
109.643134100618
109.84866504819
109.363423327862
107.975812008759
106.087791666967
104.237660967604
103.254575187391
103.16072677886
103.696115446744
104.772937212745
106.130606992307
107.485656190193
108.549545832092
109.087044397714
109.06832699811
108.565451781232
107.905581096953
107.514889536433
107.774695536438
108.800958313857
110.276971712418
111.175233407161
110.833120289062
108.379917403158
105.150703570888
103.506896739503
103.456645431475
105.101761978056
108.523184688208
114.362889146958
124.1886850936
137.251482208998
144.795392599276
139.69718411881
109.522521773172
109.522011357177
109.520228173952
109.515341450371
109.506529062991
109.49345420999
109.475350445937
109.451650244351
109.422267270421
109.387553034902
109.348270541243
109.305505303783
109.260742714653
109.215622244368
109.171881761108
109.131054287509
109.094246011035
109.061987116845
109.034735071015
109.012387586886
108.994363146957
108.980234717545
108.969786893228
108.963045808976
108.959968773853
108.959966482131
108.96228605151
108.966923123693
108.973563852222
108.98095936156
108.988579644315
108.99690720363
109.007488387477
109.023668316793
109.049883119157
109.086031000944
109.134453882226
109.196250744348
109.264967277599
109.329114504325
109.375540340244
109.40751387342
109.426607534873
109.437588538694
109.447790639116
109.469109962118
109.506952324119
109.565067957587
109.652113275409
109.780159956513
109.944465542135
110.140655638093
110.35234442751
110.549846945689
110.705661632178
110.806437082092
110.850239938387
110.827996419994
110.752632733737
110.663537006738
110.595278741689
110.566486569692
110.585789757166
110.654983346405
110.748446998567
110.851398738824
110.92697678925
110.937112184017
110.850112701859
110.623418227249
110.25892883408
109.80882923605
109.375635013506
108.975056747388
108.653585689437
108.404869524573
108.223908498511
108.068985509125
107.920966623268
107.764583568004
107.598636495852
107.45883843216
107.371532227685
107.328080112173
107.306290392
107.304313150825
107.308340072825
107.306020004127
107.280452385903
107.225520355027
107.108979779296
106.910877509989
106.684518058916
106.518240932333
106.450578150015
106.492883652131
106.667974702345
106.950298932656
107.242672547624
107.415615657771
107.372889184541
107.051556313932
106.497931203403
105.838631587202
105.128557697033
104.63074279628
104.499375275456
104.680322441232
105.078172543096
105.639562742071
106.284355629158
106.912989279787
107.478929187492
108.017894215465
108.597520864816
109.247124922754
109.709862570396
109.828683568242
109.302949854332
108.016301504225
106.340906000891
104.598653331435
103.575305142294
103.450078859702
103.954933166285
104.986159045579
106.297357202907
107.610983078891
108.656408835512
109.203394892542
109.219307889815
108.765071207024
108.128861762715
107.731107643643
107.952729676343
108.91199711852
110.285419818334
111.068266759508
110.649825616466
108.24908861832
105.201115972213
103.568402467969
103.509788058837
105.140218065071
108.563286954205
114.382851679659
123.918458029662
135.53900093152
141.582732382231
136.309488963472
109.480910235343
109.480729077904
109.478146234544
109.473351295714
109.464391356107
109.450436999921
109.430570054752
109.404324880654
109.371329628301
109.331882088321
109.28687044182
109.237634215406
109.186010061535
109.134067853009
109.083987288463
109.037741458141
108.996921519388
108.962466734574
108.93430475529
108.911531531738
108.89371582751
108.880513827359
108.871492853708
108.866655536803
108.865576496764
108.868001944338
108.874017086033
108.883272820445
108.89538184331
108.909098745109
108.922352305063
108.933463695038
108.944496778293
108.959788180322
108.985738004542
109.024385274824
109.076821578145
109.145598157064
109.227553526226
109.311129273884
109.381581776556
109.430994367776
109.462457883415
109.480279687011
109.491112231317
109.505610041323
109.536298247919
109.588224757257
109.665788139711
109.783793780561
109.941015886628
110.127491011588
110.331906847835
110.527567956345
110.686718047671
110.791125879202
110.836819798607
110.819550784783
110.755049013136
110.672919643247
110.602498524669
110.559968206733
110.548394515863
110.564809532076
110.594419557019
110.617606122943
110.606545676946
110.531631956648
110.344415137255
110.026496105097
109.60071211566
109.13212132779
108.690185431244
108.290871450972
107.990628935308
107.767075535298
107.605054961894
107.458402739521
107.319690431717
107.176041503249
107.037224878634
106.939428854626
106.899636581137
106.896888177231
106.913582997952
106.94654277773
106.97310419063
106.97852732285
106.959256279294
106.902632496387
106.779810911976
106.591807372346
106.398812035867
106.277131891302
106.244431297725
106.314691898402
106.505223579318
106.774964567945
107.02126109349
107.155019360973
107.09468879792
106.80855512871
106.351088945791
105.824355223764
105.238743080739
104.773384735753
104.630145121817
104.788051148192
105.135852799118
105.650432494039
106.295630795799
106.966096111352
107.599201059823
108.192782944135
108.799041765816
109.41619427598
109.78971136539
109.822154727218
109.271420884873
108.093541456843
106.625613308926
105.009152461318
103.95027854914
103.779829873095
104.250340253082
105.230689206585
106.487368347525
107.752486625798
108.773956076467
109.331727164581
109.392307320916
109.006647632485
108.408440989662
108.015451055997
108.201371738604
109.090964547153
110.329382902883
111.001139218522
110.490950540014
108.161490423915
105.319984326394
103.706220052381
103.640225667699
105.252215100142
108.681699903728
114.488332574444
123.705756691703
133.913365137063
138.705265128914
133.373810644953
109.439617809568
109.441448871479
109.438618921114
109.433208774524
109.423717524951
109.409003756741
109.387643284248
109.359049670409
109.322728620049
109.279027942691
109.229014265664
109.174277138932
109.116899169926
109.059147586195
109.003404702168
108.951890733211
108.906412762418
108.867946263111
108.836614293872
108.812372117519
108.79429973707
108.781302077031
108.773012781977
108.769530386402
108.769866593439
108.774322670139
108.783879569542
108.797614522681
108.815487493571
108.836870759392
108.858128387166
108.875886242853
108.891356176836
108.910044524772
108.937511359285
108.978913519383
109.035376149013
109.108551016382
109.198625533902
109.298220652759
109.389528864872
109.453286891688
109.495713291227
109.523050880159
109.540589999694
109.55477492492
109.578316747767
109.622442419384
109.695217452938
109.798570369387
109.941242482791
110.109512669325
110.297397547249
110.482256160792
110.636114357861
110.740213266603
110.787926603115
110.779691648679
110.728068158014
110.65296626045
110.575329007451
110.505574425716
110.448977794574
110.406395428656
110.36126273261
110.297077428022
110.191821547251
110.015136907883
109.734915374288
109.352993432065
108.887068668641
108.414168487698
107.975472966947
107.601255213731
107.332933463586
107.141119009395
107.001043216744
106.868465442995
106.743911952807
106.617603119814
106.508462129193
106.451554690382
106.452562800574
106.48690383416
106.542949817057
106.605908741318