/*--------------------------------*- C++ -*----------------------------------*\
  =========                 |
  \\      /  F ield         | OpenFOAM: The Open Source CFD Toolbox
   \\    /   O peration     | Website:  https://openfoam.org
    \\  /    A nd           | Version:  12
     \\/     M anipulation  |
\*---------------------------------------------------------------------------*/
FoamFile
{
    format      ascii;
    class       volVectorField;
    location    "0.045";
    object      U;
}
// * * * * * * * * * * * * * * * * * * * * * * * * * * * * * * * * * * * * * //

dimensions      [0 1 -1 0 0 0 0];

internalField   nonuniform List<vector> 
54000
(
(0.0166353016036787 -0.00700657285955554 5.02321353124589e-05)
(0.0619393535041569 -0.0199265329849026 0.000251570904072199)
(0.105673499019811 -0.0207673245999284 -5.66531471995631e-06)
(0.156689571717064 -0.0176619725511474 2.29885916389509e-06)
(0.214194466485362 -0.0182709894439529 3.51190062202458e-05)
(0.277591484231879 -0.0219966553671574 2.97242926642835e-05)
(0.3406544972748 -0.0277047210694651 7.60303795150025e-05)
(0.406636317399375 -0.0320286420309222 8.73093553695365e-05)
(0.480321082496394 -0.0357891751650699 0.000109679499156091)
(0.567593303700308 -0.0400838048267766 0.000121703790354138)
(0.668276883868259 -0.0465294584305115 0.000134897212080211)
(0.781111089513944 -0.0549491678980973 0.000146424863275468)
(0.905530151647855 -0.0651108729270887 0.000159118750108124)
(1.04204326331859 -0.0770108376356836 0.000170681499247548)
(1.18955903456154 -0.0908519183925568 0.000182702880587172)
(1.34534426566718 -0.105653354914848 0.000194521631125196)
(1.5055382811686 -0.120803102866331 0.000206180839192451)
(1.66684946738234 -0.135610405333367 0.000216843786978065)
(1.82432831612351 -0.149337434626782 0.00022723589031148)
(1.97557680602942 -0.161222122896912 0.000236942886311599)
(2.11933960432843 -0.171862648305724 0.000245333390892977)
(2.25416228238435 -0.181121766623959 0.000252797632405386)
(2.37862127620958 -0.18505265968287 0.000258852711637261)
(2.49377647417397 -0.177391162704113 0.00026386110321271)
(2.6045534321695 -0.155298126042481 0.00026811934031655)
(2.71710099309945 -0.121146981211708 0.00027138028362114)
(2.84105221504014 -0.0789643799056371 0.000273288158612604)
(2.98263586378549 -0.0394826546527044 0.000274374225517418)
(3.14996652933947 -0.00535412695024915 0.000275963321088453)
(3.34470017470229 0.0354606701038373 0.000274887603710351)
(3.58325610272602 0.0740110290240154 0.000271467264825942)
(3.88430605582611 0.100195915069094 0.000267333677279361)
(4.24770612298405 0.0994213346276973 0.000263256832295499)
(4.64851070114449 0.0690647669412034 0.000258991610041742)
(5.04620686237003 0.0227661032607934 0.000255909915000318)
(5.39539259719921 -0.0474437804431721 0.000251247524227456)
(5.59310120342776 -0.123968509822605 0.00024504547756071)
(5.69112581557963 -0.178066127481221 0.00023826375139666)
(5.62078737160236 -0.217058997752586 0.000230888791583944)
(5.41630743766553 -0.230047697549281 0.000221988108260106)
(5.15723999260643 -0.197252986595795 0.000211048022151752)
(4.95486305959794 -0.137528634352856 0.000205893261695017)
(4.85593421120693 -0.0599121428163097 0.000190260316048835)
(4.82392407159234 0.0139360283192092 0.000184762960467822)
(4.84064556905245 0.0734974887577986 0.000173055201813052)
(4.89613080123741 0.111432645992929 0.000162893828241883)
(4.92102280257764 0.126313057401058 0.000154923524010635)
(4.91114793607097 0.123959014781631 0.000141896731667494)
(4.91132707899124 0.107159143451684 0.000132115414644071)
(4.97678615467687 0.0817542175242565 0.000119843380129212)
(5.15552690415562 0.0553894713372134 0.000107305129680921)
(5.44206412462333 0.0316968061770937 9.44138643118935e-05)
(5.75230971573585 0.0112089449409402 8.17359499466484e-05)
(5.95994693811072 -0.00168218003586338 6.93232439827881e-05)
(5.99550741953748 -0.00937213063793686 5.64731728227229e-05)
(5.91719194345537 -0.0210658262697637 4.4402095045379e-05)
(5.63158576131236 -0.0292478651261396 3.42410154436439e-05)
(5.00900338357151 -0.0335713938018986 2.54622647850672e-05)
(4.08488582452819 -0.0295005548554174 1.81035601185751e-05)
(3.06949519411885 -0.00312273864194951 1.08707858945169e-05)
(2.25819584147758 0.0812853185458683 4.86011560999554e-06)
(1.82976646396274 0.186937326439597 2.2190230040174e-07)
(1.71671137892973 0.276531000114713 -3.57029381113446e-06)
(1.83936673580822 0.358210811869505 -6.54252208726796e-06)
(2.17740871571162 0.453595676218117 -8.82687909934121e-06)
(2.75839922270494 0.526300463909321 -1.01527453361749e-05)
(3.40072323780871 0.571838019031676 -1.05195576463171e-05)
(3.92994979313017 0.584839328386676 -1.0192515009538e-05)
(4.1507354995549 0.554129256007888 -9.1720188657999e-06)
(3.97031480262298 0.506790870549241 -7.59430130389498e-06)
(3.21957586639088 0.420017170792217 -5.30111892700034e-06)
(1.86503707150835 0.305545039351511 -2.20483245478305e-06)
(0.343935774943649 0.223593628535739 1.57593845641503e-06)
(-0.623121732860888 0.207547944298178 6.68642681673759e-06)
(-1.0949934773329 0.227736185009672 1.20622893190331e-05)
(-1.20830157383512 0.266022446107774 1.83001268986419e-05)
(-0.89914150608931 0.316722880929454 2.43641297273355e-05)
(-0.291028856903515 0.35315359897648 3.0287106882956e-05)
(0.250623087792252 0.32628188766852 3.6303222757698e-05)
(0.408684679475666 0.210578805013606 4.27545495204027e-05)
(0.214372037369736 0.10373760880807 4.88496704999605e-05)
(-0.199564646148657 -0.0436067299554713 5.60160866612736e-05)
(-0.58814305547995 -0.210527979700165 6.17454882218113e-05)
(-0.962659028665426 -0.324172090671707 6.61781591184836e-05)
(-1.23287841322937 -0.34418447960953 7.00868306921439e-05)
(-1.36851171581778 -0.289280767616184 7.3274759279263e-05)
(-1.38694856977968 -0.211500796691135 7.57277796475727e-05)
(-1.32094412843646 -0.137025638371665 7.78189838993581e-05)
(-1.22521565150505 -0.0786362016417025 7.85676404446165e-05)
(-1.31838970467813 -0.04066019533304 8.02428278036602e-05)
(-1.54939857475628 -0.0530341177129435 8.14803102363252e-05)
(-2.30530950448189 -0.076049893003308 8.15244663997681e-05)
(-3.57733418170088 -0.068533069410151 8.46768930789964e-05)
(-4.7721954245923 -0.00788021937435205 8.64862881387951e-05)
(-5.33980090712422 0.104334157912367 8.5891878098438e-05)
(-5.54428813121377 0.243444700739008 8.59225712309407e-05)
(-5.12598138419483 0.386543585015996 8.75536467400191e-05)
(-3.96824172371026 0.478079827794441 9.0255749496001e-05)
(-2.50193823227557 0.483846378897614 9.41174930492858e-05)
(-1.17390714860162 0.430281676732201 9.7021395359515e-05)
(-0.480129422027269 0.186141676658381 0.000100837470415905)
(-0.815496420557256 -0.19141556436182 0.000106253520350999)
(-2.99042556616619 -0.65888931256336 0.000108482375896179)
(-7.13276322103317 -0.787881972538131 0.000110911461508774)
(-10.4731338897878 -0.489935902613179 0.000114405828753732)
(-11.8875139440816 -0.178144286692909 0.000120919710878513)
(-12.0832950896973 0.0730332251460954 0.000130892841121715)
(-11.5047654035122 0.24272251738122 0.000139286103970515)
(-9.73557884857528 0.332613463114771 0.000149391820662955)
(-7.46015352985226 0.249017646658816 0.000155739830463023)
(-5.45484776470587 0.0644277312374353 0.000157153784651854)
(-4.01618458130199 -0.0936122070796118 0.000159898694916263)
(-2.90510413970217 -0.0952434780023117 0.000164464214892057)
(-1.74124785843084 0.00484917098185624 0.00017276845075453)
(-0.15028265379713 0.162830300628054 0.000176321221163404)
(2.01049123332144 0.298006502930326 0.000181073423582996)
(4.47690438655478 0.29807784310844 0.000186530595983494)
(6.10475623061499 0.046081527520657 0.000195479645547652)
(6.29095969940272 -0.551032785234641 0.000194372748999726)
(2.8249144870566 -1.38163124638896 0.000190443901143834)
(-4.97974166555186 -1.46799415547236 0.000186428836146399)
(-10.5876879409257 -0.755535925176348 0.000183540009865226)
(-12.3163152209439 -0.236654848059889 0.000183470138558926)
(-12.2052063821507 0.131929637583418 0.000186606514177631)
(-10.9156220143577 0.386566105180634 0.000188445830447482)
(-8.00830507537898 0.545363827790805 0.000192621544601184)
(-4.42776717891749 0.53765879380438 0.000198095796407607)
(-0.900950884044137 0.364054975382493 0.000203885021500216)
(2.04968353683222 0.110072884929922 0.000207222993441169)
(3.53982327032967 -0.16294057314863 0.000212015278698168)
(4.43835493665279 -0.293840366768628 0.000211283265460166)
(4.37084316613917 -0.322876734273642 0.00020895625465628)
(4.23316724469979 -0.170139268361157 0.000205656841427284)
(5.58292517909297 0.0531069906511152 0.000212468262385064)
(8.7707819536559 0.318314211191282 0.000213975042132501)
(13.5494601064306 0.504402436216012 0.000213615152552773)
(19.7174807959455 0.491860296005633 0.000213870053810333)
(23.1590162345305 0.163391573693092 0.000221192107738434)
(22.7239226859749 -0.408047751835165 0.000219593572600601)
(15.2931679984435 -0.914394477047488 0.000210670326467625)
(4.93403203915906 -0.822913485145037 0.000201249521811072)
(2.8814404193999 -0.276669125236737 0.000210094258246008)
(8.3427452873931 0.0840634816357632 0.000200979874979311)
(18.4510935054299 0.28814144772505 0.000189597318910647)
(32.6240218472638 0.168879639657789 0.000188500859922988)
(50.818180053463 0.214459360415406 0.00020195628665723)
(73.3296561293598 0.511200976586251 0.000205662228243268)
(98.4106070551855 -0.131328151779973 0.000255657352511555)
(115.088552595551 4.07465652245422 0.000336623961148189)
(88.8727474473797 10.5687647257499 0.000378100067029005)
(0.0138131323934926 -0.0175524046436637 6.15403136203667e-05)
(0.0594824181686048 -0.0353616791016697 0.000255016583783726)
(0.108090385307224 -0.0373563451264172 -1.09543307630815e-05)
(0.158383451863317 -0.0356358314291302 -1.72664263199257e-06)
(0.21467234382893 -0.0368996927903055 3.59593964661759e-05)
(0.276231007168463 -0.0420857656493838 3.00802990884839e-05)
(0.339237393447594 -0.050253709281446 7.79420447078406e-05)
(0.405965592724063 -0.0572203097808431 8.95793237704987e-05)
(0.480155578118806 -0.0639456122485099 0.000112611972536379)
(0.566876446536376 -0.0717541242295532 0.000125191902064192)
(0.666545192878824 -0.0826345293389654 0.000138929300007889)
(0.778444165234552 -0.0962185807827615 0.000151019580848346)
(0.901983735641444 -0.112178142558562 0.000164285161375579)
(1.03739906584552 -0.130166736963981 0.000176365509420972)
(1.1837586633101 -0.15085421821626 0.000188833335876031)
(1.33875276502073 -0.173644631593176 0.000200889437722166)
(1.49864690515237 -0.198303493803741 0.00021274949237025)
(1.65940656362051 -0.224003671485983 0.000223623283403322)
(1.81733499532376 -0.249141701963281 0.000234210135179079)
(1.96901595892798 -0.271538170577102 0.000244124949038305)
(2.11343505506235 -0.289388144312664 0.000252944411624182)
(2.24976213231547 -0.300434545296611 0.000261009481817105)
(2.37776211884578 -0.300670322178461 0.000267688216115984)
(2.4987229407064 -0.284431991709971 0.00027315372555807)
(2.61537785184491 -0.248439065659795 0.000277671301732166)
(2.7324184475713 -0.19604987923105 0.000281125316521932)
(2.85795665565798 -0.133108224238041 0.000283351549645131)
(2.99712253876999 -0.0658931015317094 0.000284660836746285)
(3.15967318936841 -0.00173815599660988 0.000284714054125101)
(3.35481367226418 0.061668806258196 0.000284701292446879)
(3.59139132647786 0.120155858251859 0.000282472028211591)
(3.88418491631266 0.1563290859412 0.000279044471052141)
(4.23326612275103 0.154452418666421 0.000275499753150151)
(4.62000072165786 0.106762017223534 0.000271267698389817)
(5.01292536368542 0.0194393210931431 0.000265574514596291)
(5.35984905444825 -0.0901514445801335 0.000259118657395169)
(5.56181945837937 -0.210846933303214 0.00025253591360081)
(5.66353700974682 -0.303048865101064 0.000245785009378546)
(5.60198699649016 -0.367555487514931 0.000238692545934285)
(5.41205766379609 -0.383372132709191 0.000230584822163884)
(5.1678703416992 -0.327888163729467 0.000219237452296087)
(4.97394149741435 -0.225466959399589 0.000213379840167559)
(4.87584117186763 -0.0999148244510461 0.000198122305313792)
(4.84043677404822 0.0207527409836393 0.000189445040623605)
(4.85370464155472 0.119630205682062 0.000178619932172052)
(4.90219927492996 0.184910140811773 0.00016892582187747)
(4.91901581667833 0.211023267702658 0.000158490967768034)
(4.90623856983664 0.208336683249978 0.000148103340458469)
(4.90394524863646 0.183867405243647 0.000136324720804795)
(4.96868259677031 0.145360528237144 0.000122958096847276)
(5.14672790659761 0.104959429920395 0.000109915919231211)
(5.43263677790606 0.0667999862358365 9.67829094607958e-05)
(5.74471769325325 0.0318697186012463 8.34419119635731e-05)
(5.95596863100494 0.00779327690799823 7.13771573641578e-05)
(5.99173016326417 -0.00671030261483201 5.80163631984316e-05)
(5.91512911963667 -0.0258799297160307 4.5728585688977e-05)
(5.6295465598466 -0.041938159521271 3.59104830310976e-05)
(5.01245858225345 -0.0485471141040536 2.68450899657711e-05)
(4.08963649755434 -0.0385016392473316 1.88959001666855e-05)
(3.07858829413344 0.0128337232078665 1.124395690156e-05)
(2.27926960857045 0.145855805111087 4.99081803299377e-06)
(1.85268329098203 0.310711662697574 1.23410108159609e-07)
(1.73186368873363 0.456491277707614 -3.87303272644115e-06)
(1.86373296931401 0.589203117289446 -6.92882535064383e-06)
(2.20177817955439 0.739206703417606 -9.2458519695054e-06)
(2.77544260092302 0.855077375240991 -1.05935101178302e-05)
(3.410063799054 0.932324148255448 -1.09849669654048e-05)
(3.9241835165907 0.966749724928088 -1.06564410106276e-05)
(4.12728401355354 0.919452121130244 -9.62134955161265e-06)
(3.93267069654889 0.826324022432659 -7.96430846229971e-06)
(3.16082418726234 0.668154579695516 -5.52929063649765e-06)
(1.81097527340779 0.484135557856301 -2.2079871323606e-06)
(0.30584500827544 0.359495488232506 1.86423672120503e-06)
(-0.631013962027481 0.347118849967472 7.39737304062694e-06)
(-1.10672917782756 0.381347729439178 1.28662274080578e-05)
(-1.20739655579636 0.445619510242431 1.95712517650584e-05)
(-0.891637768924746 0.532197879411788 2.59724677498252e-05)
(-0.291249900471943 0.587162204295696 3.2406481092032e-05)
(0.227517116936132 0.527660751731144 3.84553460014314e-05)
(0.379172675133916 0.355694764692997 4.54092920352011e-05)
(0.17567783122762 0.148393069165043 5.1491368228474e-05)
(-0.226202909018005 -0.12580737714532 5.76492211527206e-05)
(-0.616262097447401 -0.384139681141398 6.39887924904603e-05)
(-0.982133330466308 -0.55347815705282 6.92016338177975e-05)
(-1.23696817844518 -0.57398296276355 7.31426664321089e-05)
(-1.36515410028602 -0.478171298703224 7.64607042487953e-05)
(-1.38173748688035 -0.347268774722378 7.90036828670785e-05)
(-1.31549826732744 -0.217036456457485 8.11036565886181e-05)
(-1.22595277352559 -0.121576423655913 8.30791713292156e-05)
(-1.32441790684562 -0.065583685957552 8.50199478203824e-05)
(-1.56572381932137 -0.0833740338209911 8.62759907161493e-05)
(-2.32395941252788 -0.122163985139946 8.74215905184483e-05)
(-3.58474709830419 -0.117680818166388 8.83668541123553e-05)
(-4.76597710758001 -0.00661028400250706 8.80521555598383e-05)
(-5.32809556347557 0.17780518252167 8.89491600888116e-05)
(-5.52567498933293 0.403699807610497 8.97682677574208e-05)
(-5.10861939464692 0.63228013174825 9.1474595904619e-05)
(-3.95977413778231 0.78082187509475 9.49224270023621e-05)
(-2.50291166279821 0.793802775217155 9.97667224070287e-05)
(-1.1904566952517 0.696193166656463 0.000104550402978442)
(-0.540031375089741 0.299127412753725 0.000108397270917797)
(-0.883135477636932 -0.350836859119668 0.000110854309023603)
(-3.06942205059104 -1.10285620753439 0.000114285941053659)
(-7.13684967068991 -1.32160462971618 0.000117132651914348)
(-10.4373562638656 -0.812306048898528 0.00012065533857623)
(-11.8755870056881 -0.291976119554085 0.000127576554685475)
(-12.061121427577 0.128639533853112 0.000134461160502305)
(-11.478274214756 0.417399232031426 0.000144772416679425)
(-9.73038162216944 0.561960938581973 0.000155908434761724)
(-7.47945328500466 0.427729632544135 0.000162204344517712)
(-5.49071491336508 0.116027254874034 0.000159147501845634)
(-4.03440595838769 -0.144620989899347 0.000168353659248496)
(-2.90971972432101 -0.158363872621557 0.000172390260728335)
(-1.73888557899338 0.0159288722732507 0.000179376783197343)
(-0.143060656665973 0.276676303224297 0.000185385793389273)
(2.01555350106881 0.489457353234834 0.000191789054880103)
(4.47354698570462 0.495418748115071 0.000197236455154031)
(6.08144365632957 0.0343745370196827 0.000204255851571111)
(6.23735247086359 -0.958704361256821 0.000202952986753046)
(2.7164003899214 -2.28738736916702 0.000200852027260403)
(-4.95572499331321 -2.44635574612606 0.000197500647010575)
(-10.542526664167 -1.2517702330536 0.000194149209735811)
(-12.3146165973156 -0.388140671121794 0.000192388810486281)
(-12.1668364046859 0.226665458929733 0.000192193033083867)
(-10.8850364238147 0.652952740002968 0.000195971862939705)
(-7.99485139610053 0.911636556131104 0.000201076699357554)
(-4.43325830413295 0.895650160856649 0.000207236031832016)
(-0.928908581300667 0.61947976674081 0.000213673747690122)
(1.98501507045622 0.200312631644904 0.000222629702306365)
(3.4605905028123 -0.266498606484618 0.000226782185236661)
(4.38021248472725 -0.501489308511391 0.000224854822122408)
(4.31398930318074 -0.549506648142076 0.000226149961199834)
(4.1508754827996 -0.292994835700477 0.000227402069411627)
(5.51434810110703 0.105698911764314 0.00022383148791244)
(8.70335141170891 0.555277881838509 0.00022529441225177)
(13.4119601740099 0.870233823187342 0.000230705788577605)
(19.4722001699814 0.839106263335252 0.000237189709962747)
(22.8052911709146 0.221859105656466 0.000241208675635956)
(22.4681609947025 -0.756870618810837 0.000235461775898473)
(15.0409317322704 -1.61651287455283 0.000228174905227493)
(4.62300959801642 -1.40136288942916 0.000224242441717947)
(2.47104248509553 -0.402789617996576 0.00022028119360617)
(7.90678509811481 0.13946607913647 0.000214323237557688)
(17.9517987039032 0.474688527340464 0.000206313074828514)
(31.9747492274474 0.289190573382131 0.000202775523893234)
(49.8684161864749 0.305815548583014 0.000213669943733868)
(72.1208536751939 0.423523614386117 0.00023648438323292)
(97.5545206932659 -1.34119180432421 0.000277793316766904)
(114.460839777242 4.44633932713523 0.000361757702437101)
(86.9942848528991 15.1963228531069 0.000407565809070053)
(0.00956120958720674 -0.0351832889827442 0.000161576669744259)
(0.0590594889962193 -0.0545294439847807 0.000216489240692073)
(0.111224857755221 -0.0582340327052101 -2.46362832878924e-05)
(0.160290463993834 -0.0590465497827308 -2.26503418617813e-05)
(0.215336563294177 -0.0617936643755998 3.76047260357351e-05)
(0.274460516955314 -0.0674827313887845 2.93537669257501e-05)
(0.337054557597127 -0.0769127235969293 8.13028835124878e-05)
(0.40432230468819 -0.0859898570559165 9.36148461405882e-05)
(0.47854809161069 -0.0957679927513267 0.000117433078790553)
(0.564088107940497 -0.107208134926549 0.00013087220378951)
(0.662147732785147 -0.122295755399131 0.000145216064247969)
(0.772689048191189 -0.140647935910834 0.000158064118776242)
(0.895046716636458 -0.162213464001082 0.000172048729334478)
(1.02911883396317 -0.186274052548284 0.000184672062425279)
(1.1739595018542 -0.213238627265008 0.000197468777633726)
(1.32727150820332 -0.243273058456705 0.000209811405239764)
(1.48580205342016 -0.27544187391979 0.000222055094453207)
(1.64548722100349 -0.309200644844896 0.000233153093330111)
(1.80359181937283 -0.342061880569456 0.000243546685019562)
(1.95632898940602 -0.37131138603677 0.000252944607531905)
(2.1025447755295 -0.393901980331545 0.000261471098620954)
(2.24218776714438 -0.406536480452339 0.000269251316091685)
(2.37570136428217 -0.404501840602196 0.000275944341746694)
(2.50376811621273 -0.382853257828534 0.000281447887688906)
(2.62676282297538 -0.338449590572611 0.000285583942432347)
(2.74807147934322 -0.273842148131349 0.000288761675922308)
(2.87496412408776 -0.193960052046307 0.000291304146572461)
(3.01422322260957 -0.103738407031317 0.000293113959563821)
(3.17585988524771 -0.0102555355206699 0.000294099194383479)
(3.3678562472017 0.0761607554059002 0.000294377853133705)
(3.59923332993057 0.152432990959106 0.000293372784638452)
(3.87954994786997 0.200576165153854 0.000290238232148634)
(4.2105590631999 0.201399613470642 0.000286640959417759)
(4.5775355596983 0.144904746928313 0.000282614766207032)
(4.95193801793738 0.0376139057001513 0.000277746729019942)
(5.28194372411865 -0.115897593325216 0.000272693899082073)
(5.49051353681314 -0.288314237564588 0.000266502403524784)
(5.6068021655087 -0.42534141320502 0.000259227322390221)
(5.56305526954869 -0.512684589589463 0.000251226822840683)
(5.40219454587045 -0.535141535001 0.000242024316345021)
(5.18220561053049 -0.460358779523199 0.000230589183482498)
(4.99765546703773 -0.316471207360394 0.000223632248675523)
(4.89682790325255 -0.148087179729603 0.000210363670019796)
(4.8620720532167 0.0169697912945087 0.000203086038991747)
(4.86570227430542 0.160711159687688 0.000191958121586264)
(4.90209403568466 0.258571951144933 0.000182695772876646)
(4.90859172104203 0.300069293896311 0.000169208091592809)
(4.89538385565345 0.300631086162331 0.000157792848695679)
(4.89415118500346 0.272169365587778 0.000146227591945616)
(4.95952961581277 0.224595463450123 0.000131980778486524)
(5.13526785413895 0.172313349687579 0.000117969852639778)
(5.41648703513198 0.119931517805096 0.000104050116788368)
(5.72821233906973 0.0683976825917745 8.96704091143834e-05)
(5.94531841399363 0.0295825481862121 7.70053144036076e-05)
(5.98448121779167 0.00364145069443132 6.28411630375126e-05)
(5.91427107475765 -0.027350664004236 4.90772963909157e-05)
(5.62921119417028 -0.0530028744765152 3.76403953375983e-05)
(5.02061298932116 -0.0642660611306229 2.82539463748633e-05)
(4.10503479185395 -0.0524439794615016 1.97373811553383e-05)
(3.11112305290613 0.0191860820034327 1.20354462059801e-05)
(2.32597584711681 0.202412728049185 5.16254414067301e-06)
(1.89050728189577 0.426143134185398 -3.11782813027637e-07)
(1.76076100630393 0.629705672733578 -4.65283817675933e-06)
(1.8973282006692 0.8173692768768 -7.66591473821297e-06)
(2.22778619903928 1.01996252042516 -9.98359113622904e-06)
(2.78824355726235 1.18187139418262 -1.13721590973668e-05)
(3.41117474668664 1.29124337827106 -1.18168558583863e-05)
(3.90105982307255 1.34253950780374 -1.14489975493857e-05)
(4.07017098136654 1.27354251634796 -1.03481589749096e-05)
(3.84960685157505 1.13844234809148 -8.58791725640534e-06)
(3.05488749119081 0.916093932020854 -5.82440926449865e-06)
(1.69993739430248 0.665363900747255 -1.83270308247455e-06)
(0.21456088323035 0.503951983948639 2.87655606961183e-06)
(-0.685568575106981 0.49787465855917 9.20853354933821e-06)
(-1.16874969708952 0.544063775069391 1.54787717816879e-05)
(-1.24966922242606 0.635533594333785 2.28119243004979e-05)
(-0.92068479219073 0.755946687934074 3.00131184732546e-05)
(-0.336707329915372 0.828293713131648 3.71941292532015e-05)
(0.158371147510047 0.740756235213472 4.40698888675804e-05)
(0.293193414541478 0.504073659206001 5.12051912596184e-05)
(0.0702702245987804 0.219286454618794 5.80260680810689e-05)
(-0.341327886253119 -0.16702064846801 6.55878932239733e-05)
(-0.708808178802977 -0.533288366578551 7.2448094674077e-05)
(-1.03729501511218 -0.761225366197063 7.79988157607475e-05)
(-1.26220845943007 -0.787000501176355 8.30628427014221e-05)
(-1.37950217200489 -0.656879678940453 8.62408547658921e-05)
(-1.39575920889081 -0.474860480305046 8.81215178726737e-05)
(-1.33185786697118 -0.293559683460725 8.96912989524961e-05)
(-1.2574966700721 -0.158369051741119 9.21526373334013e-05)
(-1.36263072569822 -0.0801365099835403 9.42047008126969e-05)
(-1.61478267369372 -0.103373910592051 9.6504598662964e-05)
(-2.37272309336046 -0.165634671129544 9.77378260770375e-05)
(-3.61273782891478 -0.170924205194643 9.81795083612329e-05)
(-4.77562213394574 -0.0120174511540086 9.82003205111075e-05)
(-5.33555610888894 0.244220456424109 9.84818223428021e-05)
(-5.53295848757434 0.55516456043346 9.89708231672644e-05)
(-5.11474371651772 0.865387027384749 0.000101047519518461)
(-3.98637461680185 1.07507731629381 0.000105311074326671)
(-2.54505702293308 1.10255806235711 0.000110582412468381)
(-1.2462426158255 0.973512896829376 0.000115113847027714)
(-0.653196346414414 0.41849101197233 0.00012077918962046)
(-1.04972682236124 -0.498410635129413 0.00012634411251205)
(-3.21354394080622 -1.55298443253632 0.000128982279902858)
(-7.14266334264562 -1.83961055562223 0.00013137254046658)
(-10.3970133585855 -1.1368212189422 0.000136414708546561)
(-11.8661696519801 -0.407826724627354 0.000144205897824596)
(-12.0391641839678 0.181685230076364 0.000152080825486864)
(-11.4656255025376 0.60806954732262 0.000160875948802293)
(-9.76456576864109 0.80678886535187 0.000170818986709602)
(-7.55176422892361 0.616416823384388 0.000178850142105172)
(-5.56558080999113 0.179567848255955 0.00019360733828278)
(-4.08564066331085 -0.184061682676182 0.000193352414856275)
(-2.93730483366488 -0.223371248591042 0.00019819383248802)
(-1.76001329584204 0.024446508240225 0.00020310898946292)
(-0.162109186415825 0.389036483550923 0.000208491891530221)
(1.99097514945483 0.684524701130295 0.000214761510812515)
(4.41882677893857 0.69289768177573 0.000222247706776833)
(5.96281105560181 0.0514142708816666 0.000227950936317981)
(6.03241862950758 -1.35870275742974 0.000229464325014926)
(2.5254494045245 -3.20441452055722 0.000227178694956326)
(-4.91360750426501 -3.40187578340342 0.000220826893970157)
(-10.4915547252793 -1.76542861324124 0.000217473799101652)
(-12.3150097380705 -0.541817942085965 0.000218889523829575)
(-12.1518710867996 0.321997440397295 0.000222640866561906)
(-10.9027678194805 0.934279798039357 0.000226099102705598)
(-8.0490732216823 1.29828256298082 0.000231728240972775)
(-4.52617212147357 1.27803816413748 0.000238716500987833)
(-1.05728731252541 0.89050606771694 0.000244884324913937)
(1.8204153172326 0.287761489422028 0.000250124169555998)
(3.26874296076813 -0.33917269773302 0.000252662806217445)
(4.17888766723043 -0.708657454856295 0.000252368609593759)
(4.12996503208189 -0.779808151665773 0.000251854809052369)
(3.96902175082259 -0.425207005187642 0.000249263973720002)
(5.30691004128205 0.109239794601153 0.000246922516196777)
(8.41852065904158 0.762192485125666 0.00024986159113507)
(13.0144765733432 1.21470628517014 0.000255885351706967)
(18.9605849682381 1.18291470311507 0.000260397956266637)
(22.1787479342008 0.377577713288394 0.00026249646368927)
(21.7526706356338 -1.00816994751255 0.000259780741235925)
(14.2387648342709 -2.23826616800718 0.000253720673659023)
(3.95076640046602 -1.96921183959072 0.000246170720318665)
(1.76808367821087 -0.58789799944382 0.000240363830572312)
(7.08841706084112 0.177238046887418 0.000234744374046415)
(16.9460867485583 0.622619863213419 0.000227530135475934)
(30.7374710409983 0.430109404555781 0.000223801346099926)
(48.2926060345077 0.417905928636256 0.000229806475221356)
(70.0405167672171 0.247377536081975 0.000248148647477752)
(94.5246168172037 -1.51284451990313 0.000296722014459818)
(109.376952190545 5.21286924803325 0.000370937513551176)
(77.2655593217459 17.2648783154907 0.000401472117702437)
(0.0069217678643674 -0.0631662441011011 0.000234445537519231)
(0.0598843727194427 -0.082027244188967 0.000173724237457428)
(0.112037856158442 -0.0863471392041782 -2.69737516833812e-05)
(0.162275673312119 -0.0899191149369841 -4.91783044024476e-05)
(0.215176934804272 -0.0948244276604079 3.92620277101491e-05)
(0.273732528894327 -0.100872730035602 2.74691598373628e-05)
(0.335490846586529 -0.110915143650519 8.32782787240082e-05)
(0.402815079052668 -0.121418390201969 9.7007811919036e-05)
(0.476761466072 -0.133866247419186 0.00012159272516323)
(0.561085788574645 -0.148591243080675 0.000135508620282124)
(0.657450421444962 -0.16746590458815 0.000149769501707571)
(0.766382778871395 -0.189994878044619 0.000162611145967376)
(0.887173145569419 -0.216347080712577 0.000176419039252825)
(1.01958886262677 -0.245899881845597 0.000189148651256598)
(1.16253883177023 -0.278375759627274 0.000202192487235707)
(1.31407700795127 -0.314097513748839 0.000214566355219122)
(1.47089217870717 -0.353390673783332 0.00022716488301562)
(1.62985178819792 -0.392691436920832 0.000238649701116903)
(1.78766622223203 -0.429905175660788 0.000249718973421016)
(1.94170909233561 -0.462342425466483 0.000259610447591266)
(2.09058313049896 -0.486531618980325 0.000268607806134035)
(2.23418067834597 -0.498691387742103 0.00027661188099285)
(2.37345144306924 -0.494211353025842 0.000283379000668919)
(2.50863341015505 -0.469481749990329 0.000289012112542858)
(2.63903013272216 -0.420975006286109 0.000293514377826465)
(2.76716497154204 -0.348613357554026 0.000296859321070442)
(2.89741225434051 -0.254261596742696 0.000299055672718173)
(3.03869168599525 -0.144727227336978 0.000300415126878926)
(3.19682348301481 -0.0296748791991729 0.000300922726136326)
(3.38001937445202 0.0780328997585454 0.000300348444544695)
(3.60163774912771 0.168678610112114 0.000299055511374241)
(3.86725475979747 0.227095077129377 0.000297737621366022)
(4.17367989781077 0.229998003250372 0.000295241802117209)
(4.51527752494819 0.164686771446758 0.000291515503754401)
(4.8692601788495 0.0311863241006861 0.000287033796239261)
(5.18476190476866 -0.156506789487671 0.000281765736181997)
(5.39790479304847 -0.370430880821 0.000275947398248492)
(5.53052063344243 -0.552094654589388 0.000269281976507792)
(5.51460354177916 -0.659079291183 0.00026108013744699)
(5.38821896916888 -0.684682881709226 0.000252105423650539)
(5.20086771748867 -0.591959299936329 0.000240847800659014)
(5.02682158631781 -0.410567081598413 0.000231937686367122)
(4.92611543957815 -0.198593550921695 0.00021936426749305)
(4.88760807906545 0.0115156492617864 0.000210722761202007)
(4.88134757029879 0.197315677913688 0.000200060040724077)
(4.90186526027437 0.330294121729501 0.000189264545918911)
(4.89434887002664 0.393566295306051 0.000177385717649243)