/*--------------------------------*- C++ -*----------------------------------*\
  =========                 |
  \\      /  F ield         | OpenFOAM: The Open Source CFD Toolbox
   \\    /   O peration     | Website:  https://openfoam.org
    \\  /    A nd           | Version:  12
     \\/     M anipulation  |
\*---------------------------------------------------------------------------*/
FoamFile
{
    format      ascii;
    class       volScalarField;
    location    "0.028";
    object      alphat;
}
// * * * * * * * * * * * * * * * * * * * * * * * * * * * * * * * * * * * * * //

dimensions      [1 -1 -1 0 0 0 0];

internalField   nonuniform List<scalar> 
54000
(
2.06637884654258e-05
0.000260710029039211
0.000678848172654144
0.000785812796801742
0.000878145580549456
0.000990863644860037
0.00108940254420864
0.0012011280473561
0.00130226842883768
0.00142191994729011
0.00153130715970369
0.0016645787661138
0.00178865324847782
0.00194260128540546
0.00208851791474523
0.00227079131828414
0.00244449396701678
0.00266455767248673
0.00289962320982442
0.00314574162068033
0.00346077090924604
0.00380466741819404
0.00416573591853401
0.00462339937713784
0.00523009201231242
0.00642985435820846
0.00839434041721492
0.0108120914607401
0.012229830598726
0.0124798972697163
0.0127240740832953
0.0129532428581091
0.0131645257149649
0.013351933994777
0.0135094218180869
0.0136296240927772
0.0137107579944115
0.01375890128666
0.0137978606088249
0.013840723714097
0.0138943510185798
0.0139628989417807
0.0140493966847804
0.0141560114240599
0.0142838161715054
0.014433251590839
0.0146045141831579
0.0147987462055952
0.0150169460671665
0.0152596490310896
0.0155285717740902
0.0158252163555114
0.0161508802776328
0.0165030015251195
0.0168707866628269
0.0165124422232252
0.0153712931666335
0.0143105766347663
0.0134908055735835
0.0129804702937253
0.0128562778456319
0.0129042853153329
0.0131825336639753
0.0135049567400335
0.0139621188421378
0.0144023067111226
0.0149365099210156
0.015436843960205
0.0160132825412908
0.0165522953927687
0.0171506565894841
0.0177224382803778
0.018352190424647
0.018991556744719
0.0196937629586145
0.0204478978822724
0.0212560456708558
0.0221943419349417
0.0232367608530604
0.0246633833477215
0.0263559147425567
0.0289519014356048
0.0327334137960039
0.0375394541947409
0.0427845983812975
0.044096269676763
0.0451681522715842
0.0460297693231847
0.0467616844864812
0.0473835757438807
0.0479480028915392
0.0484833341308973
0.0489625411485685
0.0494290211642561
0.0498577489218703
0.0502658011109592
0.0506245068263398
0.05094765948608
0.0512078648720012
0.0514195039052183
0.0515596093435186
0.0516467345904179
0.0516669586246994
0.0516430647455912
0.0515652609345977
0.051451049877042
0.0513062684348727
0.0511144695103993
0.0508990121194895
0.0506449144229463
0.0503598933660914
0.0500294716540304
0.0496652053555228
0.0492591281701535
0.0488241883200928
0.0483538996736172
0.0478596757292037
0.0473398523039643
0.0468111707692615
0.0462770255813706
0.0457513042767463
0.0452335077643618
0.044731832761383
0.0442489162820563
0.0437801218111556
0.0433303694472025
0.0428889577087409
0.0424523550694386
0.0420107294331814
0.0415661199392601
0.0411147556950051
0.0406637512385726
0.0402149643679222
0.0397756283107163
0.0393472805103256
0.038938892405876
0.0385531763235441
0.0381963288492234
0.0378701632396296
0.0375698942084875
0.0372923387815491
0.03703033586612
0.0367768289093767
0.0365288245722463
0.036288515335032
0.0360544848208108
0.035834332199889
0.0356310530505331
0.0354631155718232
0.035402512035478
2.06820203090719e-05
0.000260856453375464
0.000689933031822105
0.000791514568863626
0.00088560364489126
0.000996067837056639
0.00109947544427071
0.00120796967100879
0.00131434063398537
0.00143018490668452
0.00154549811809167
0.00167455704491189
0.00180532316937883
0.00195454616397516
0.00210768022088572
0.00228422962196124
0.00246640980962262
0.00268211905098145
0.00291782416488842
0.00317297487969726
0.00348449061239813
0.00383119289058901
0.00420338557504283
0.00465711407218649
0.00528468225663343
0.0064770632044126
0.00841242385258522
0.0109098605584615
0.0122291436688051
0.0124786521513355
0.0127219520901837
0.0129504486559662
0.0131606440442517
0.0133470352304899
0.0135029587227851
0.0136219543122493
0.0137015143753676
0.0137485173356699
0.0137867171362671
0.0138291889024711
0.0138826573014981
0.0139513606714052
0.0140381937084725
0.0141448189019959
0.0142723643715977
0.0144215182689484
0.0145927371593124
0.0147868701604339
0.0150047443428384
0.0152472301098677
0.0155158423307962
0.0158122226884281
0.0161373944777511
0.0164887413077113
0.0168562566739669
0.0165256541218345
0.015402314900217
0.01432688155321
0.0135171335626751
0.0130362272669225
0.0129117639940752
0.0129790578188593
0.0132547729126677
0.0135894949440413
0.0140470733981073
0.0144937789504973
0.0150342512748972
0.015533710999532
0.016124335559833
0.0166531043763745
0.0172767872825374
0.0178265583748355
0.0184958408532671
0.019097844688879
0.0198587338261356
0.0205542049184347
0.0214492959299696
0.0222984519091784
0.0234748265508444
0.0247552440546799
0.0266907666271307
0.0292103189674921
0.0332856514921682
0.0387353470933449
0.0427889078545349
0.0440968148207129
0.0451581704958881
0.0460195642310569
0.0467444810969117
0.0473678018807072
0.0479296822226717
0.0484565930941605
0.0489414636290913
0.0494056468609984
0.0498380211908246
0.050243178840903
0.0506050864867139
0.0509254182061193
0.0511886524372408
0.0513977090921864
0.0515406840501796
0.0516254867332449
0.0516484016339306
0.0516225141169507
0.0515471071954292
0.0514324320468859
0.0512839670150395
0.0510960280385476
0.0508798666659346
0.0506282987200314
0.0503420757769344
0.0500136383229223
0.0496481378269305
0.0492437690292496
0.0488077866039485
0.0483390775768022
0.047844004853522
0.0473255657882015
0.0467961675152691
0.046263299743755
0.0457370424849334
0.0452204331126442
0.0447186717319605
0.0442348481521421
0.0437675961320551
0.0433175804778872
0.0428771964545765
0.0424401060844238
0.0419993092072236
0.0415541991110664
0.0411035522075743
0.0406521368628799
0.0402040393650653
0.0397644366808192
0.0393368425653197
0.0389283176548688
0.0385433137333093
0.0381864757298816
0.0378600273475205
0.0375605753961322
0.0372829890653381
0.0370206248208204
0.0367677907163404
0.0365196794328018
0.0362790598913308
0.0360456792394657
0.0358254663793856
0.035622805688567
0.0354546137894282
0.0353932912331868
2.06946532486273e-05
0.000260863858416862
0.000693133829623398
0.000793115621398145
0.000887104730286833
0.000996168852755471
0.00110128362841966
0.00120856430991676
0.00131688607072172
0.00143106746703484
0.00154873459121997
0.00167601753209948
0.00180967323373699
0.00195681713552003
0.00211315629226416
0.00228722318055856
0.00247414449037246
0.00268766399684769
0.00292338398168906
0.00318463807194634
0.00349380500826142
0.00384175972622979
0.00422266777726813
0.00467503155842824
0.00531735735286185
0.00650196355316287
0.00846400179852155
0.0109310153277228
0.0122280737213655
0.0124766378651659
0.0127187819229596
0.0129459469875565
0.0131545484050135
0.0133390803988669
0.0134929563267276
0.0136097239216382
0.0136871031333101
0.0137325052864568
0.0137697134267223
0.0138115695744851
0.0138646883450658
0.0139332573255769
0.0140199434824987
0.0141263291580174
0.0142535002188552
0.0144022284784731
0.0145730906401574
0.0147668231626839
0.0149841493720394
0.0152261726290685
0.0154942417027846
0.015790190185234
0.0161148264847481
0.0164658870436548
0.016832599144211
0.0164488432578258
0.0153268376913006
0.0142558872564393
0.0134621577139028
0.0130059466198149
0.0128845446782458
0.0129694648252691
0.0132382057422977
0.0135862964407834
0.0140318596529673
0.0144921205838194
0.015017521786646
0.01553194588241
0.0161043426226139
0.016650288906116
0.0172531953712325
0.0178236511418112
0.0184693460059094
0.0190962121314598
0.0198300993529393
0.020556464177172
0.0214216262422655
0.0223129789916365
0.0234598666951253
0.0248062250426967
0.0267296645996026
0.0293533082563863
0.0334695596678116
0.0390403086087301
0.0427544319686176
0.0440568883458266
0.0451094913422146
0.0459695254252045
0.0466893899041381
0.047313642186946
0.047873784632359
0.0483963691270183
0.048884843048519
0.0493476412390211
0.0497830671514461
0.0501867155529726
0.0505514742240884
0.0508704271408934
0.0511364761848619
0.0513444190023186
0.0514901709819931
0.0515741182575604
0.0515997476568676
0.0515733252079085
0.0515004727488097
0.0513861736334582
0.0512367711280219
0.0510518839511007
0.0508359472263947
0.0505868779622891
0.0503006493504392
0.0499742488118284
0.0496086657260792
0.049206091362262
0.0487701850943922
0.0483031899279277
0.0478083456671203
0.0472914327191166
0.0467623398275631
0.0462309086397842
0.0457051141684728
0.0451898682047266
0.0446887710361201
0.0442051791659605
0.0437392132264904
0.0432896065788455
0.0428502578365925
0.0424134139483139
0.0419734471367594
0.041528530737772
0.0410786443458593
0.0406275143547084
0.0401802000075628
0.0397410423005881
0.0393143263074982
0.0389063467781322
0.0385221596711563
0.0381658533007089
0.0378396885869289
0.0375408865334542
0.0372636181878464
0.03700134215283
0.0367489941139487
0.036501118041675
0.0362606276573994
0.0360277947264935
0.0358079572861727
0.0356059721319612
0.0354378042447984
0.0353755702321019
2.06952419654809e-05
0.000260789623617179
0.000695303729681694
0.000794717504530613
0.000888347612221825
0.000996535121914124
0.00110190423333034
0.00120865412112953
0.00131749713367271
0.00143115989694688
0.00154968715270524
0.0016765797719032
0.00181144361454772
0.00195811257727721
0.00211585094443087
0.00228948627064485
0.0024787853386526
0.0026915900117049
0.00292792265681975
0.00319307352534795
0.0035017467448849
0.0038515005341852
0.00423899579749475
0.0046942742995041
0.00534643875561947
0.0065299982288565
0.0085012421296422
0.0109368730591351
0.0122268798758279
0.0124741109429884
0.012714671369358
0.0129399349302582
0.0131462845589947
0.0133282095474928
0.0134791968887695
0.0135928407967114
0.0136670308739667
0.0137103228886746
0.0137461240935212
0.0137870841774892
0.0138396175281329
0.0139077402566195
0.0139939485533428
0.0140998395080614
0.0142264760298319
0.0143746272495441
0.0145448950857818
0.0147379629913388
0.0149545789169317
0.0151958894372128
0.0154632931262284
0.0157586120458986
0.0160826820664307
0.0164328757143433
0.016797918175155
0.0163199504534155
0.0151927086350108
0.0141386954167745
0.013372590923625
0.0129413491682395
0.0128284733919083
0.0129262729770408
0.0131922342489416
0.0135461275905602
0.0139835364720546
0.0144477587503342
0.0149621880769075
0.0154801227274909
0.0160389943100677
0.0165886614823804
0.0171762663847991
0.01775179848767
0.0183806950240241
0.0190142034020941
0.019729423722021
0.0204653165540994
0.0213114617837656
0.0222204745450104
0.0233540279709528
0.0247404972111165
0.026676231349867
0.0293871969203139
0.0335758154440708
0.0392533925846739
0.0426876691880569
0.0439803752072832
0.0450255289921408
0.0458816465255999
0.0465984725644805
0.0472219106732602
0.0477818106776088
0.048302828999503
0.0487925925078075
0.0492558399682383
0.0496927661150394
0.0500970523012985
0.0504634071822207
0.0507831566952121
0.0510509445324832
0.0512599086533005
0.0514075327175449
0.051492673719567
0.0515203013553444
0.0514953068647986
0.0514245127368302
0.0513120360442397
0.0511636171249547
0.0509809089296085
0.0507665922237519
0.0505195900738014
0.0502348148754182
0.0499101846291346
0.0495458718251959
0.0491449682464226
0.0487104118904911
0.0482451654391418
0.0477517362228812
0.0472364839445743
0.0467087752159725
0.0461790083947515
0.0456546846449731
0.0451410810829116
0.0446414462549186
0.0441589550910025
0.0436943190451076
0.0432457718325985
0.0428075741654772
0.0423716306454942
0.0419326318877623
0.0414885218669398
0.0410396042762846
0.0405893615917275
0.0401431048930402
0.039704988085898
0.0392794558975327
0.0388725761942454
0.0384894756397484
0.0381341185346043
0.0378086708656715
0.0375105770025008
0.0372338862131015
0.0369720213482961
0.0367201909905485
0.0364728089715461
0.0362327917592058
0.0360006274125603
0.0357814911178671
0.0355803872218697
0.0354123949237537
0.0353490181054678
2.06835239376868e-05
0.000260637678472352
0.00069636575329638
0.000795937446419772
0.000889534836874002
0.000997201029316999
0.00110239785740482
0.00120871525424547
0.00131764473477952
0.00143108974976965
0.00155008257935888
0.00167700776506709
0.00181260480964663
0.00195933651714265
0.00211799471902166
0.0022919337549065
0.00248279343845064
0.00269577327812239
0.00293320562381263
0.00320117992085185
0.00351052045234139
0.00386248134025612
0.00425541307406421
0.00471562026161224
0.00537627150926842
0.00656104879179716
0.00852888243943391
0.0109321179464506
0.012225434732584
0.0124708563869682
0.0127093523090161
0.0129321409270011
0.0131355617158954
0.0133141273922511
0.0134613364920521
0.0135707934737668
0.0136406619248103
0.0136812174180887
0.0137151961925569
0.013754924650357
0.0138065859721605
0.0138739627348084
0.013959456879071
0.0140646380999215
0.0141905529089475
0.0143379423362
0.0145074008821189
0.0146995974249717
0.014915323527346
0.0151557459210808
0.0154223458343258
0.015716910957957
0.0160400335360397
0.016388362583091
0.0167510472053327
0.0161319349076982
0.0149972484712487
0.0139745062651954
0.013246164736044
0.0128468977201042
0.0127483344703386
0.0128576815529609
0.0131231450832307
0.0134791401342587
0.0139096963877713
0.0143727703958079
0.0148772443112116
0.015392469419618
0.0159390281195107
0.0164852327563612
0.0170589988147401
0.0176312297941076
0.0182453582056189
0.0188759044429308
0.0195753394659343
0.0203098422723647
0.0211418611415204
0.0220572400291683
0.0231879533514318
0.0246065529375805
0.0265769465100575
0.0293826510697345
0.0336814129186303
0.0394770036960972
0.0425927332933345
0.0438721125347521
0.044908614553444
0.045759075539278
0.046472745964883
0.0470945867050414
0.0476543393266353
0.048175040437222
0.0486656430594659
0.0491299781267115
0.0495681689318605
0.0499738828841465
0.050341770526748
0.050663160776622
0.0509327163312942
0.0511435572287228
0.051293155671539
0.0513803357665777
0.0514101574809277
0.0513874632097407
0.0513190480577381
0.0512090785648451
0.0510627487543375
0.0508824503490641
0.0506704774008618
0.0504258422986957
0.0501432667521681
0.0498207410385468
0.0494584211051063
0.0490595790483891
0.0486271261973533
0.0481641090260067
0.0476728628733111
0.0471597772822334
0.0466341985620036
0.0461066426002663
0.0455845409870221
0.0450731426484811
0.0445756094268008
0.0440949206549335
0.0436320010208721
0.0431850100097912
0.04274830316565
0.0423137350125856
0.0418760308907603
0.0414331856565104
0.0409856054212808
0.040536736688812
0.0400919517609745
0.0396553884980255
0.039231477766388
0.0388261856931569
0.0384445610128139
0.0380905248037763
0.0377661578334519
0.0374689803673418
0.0371930809446471
0.0369318783167869
0.0366807296364106
0.0364340597242932
0.0361948034122726
0.0359635485650803
0.0357454081192361
0.0355454778763257
0.0353777889669839
0.0353130860597033
2.06582933861288e-05
0.000260403535704363
0.000695978682007661
0.000796755889368802
0.000890567662673117
0.00099800546486468
0.00110291941819291
0.00120882452728059
0.00131766921785499
0.0014310673940433
0.00155044093887746
0.00167765659377158
0.0018138882235917
0.00196102698677871
0.00212054601919869
0.00229520039183048
0.00248738774834916
0.00270119916079964
0.00294021687009306
0.00321074023386094
0.00352169886804429
0.00387650090711305
0.00427488008600599
0.00474197262967783
0.00541211980155783
0.00659976630146867
0.00855659628062409
0.0109219192696521
0.0122234356132687
0.0124665265302102
0.0127024152563894
0.0129220958552885
0.0131218452489902
0.0132961868238829
0.0134385884596786
0.0135426454202952
0.0136070715498103
0.0136441994750642
0.0136759985303496
0.0137141654175501
0.0137646502777283
0.013831035003122
0.0139156194580419
0.014019914236894
0.0141449277099921
0.0142913600457188
0.0144598025486969
0.0146509256869201
0.0148655669651535
0.0151049337389626
0.0153705694662233
0.0156641387676024
0.0159858224726411
0.0163315948195056
0.0166915333418349
0.0158780577188557
0.0147417705274402
0.0137633250870158
0.013082843689896
0.0127213243365907
0.0126435238520206
0.0127648183224886
0.0130311568668384
0.0133871139985451
0.013810877325411
0.0142694867206566
0.0147634678085554
0.015271879192963
0.0158054362381729
0.0163436122290512
0.0169031185527433
0.0174670983498066
0.0180658276435927
0.0186879626025741
0.0193712976261397
0.0200989653248806
0.0209181658379689
0.0218365570698189
0.0229717445622107
0.0244273157809996
0.0264531364060794
0.0293797522284713
0.0338288793736117
0.0397612525102728
0.0424702588055743
0.0437327703371486
0.0447581569339626
0.0456010630116759
0.0463104724539548
0.0469300311204553
0.0474893154526074
0.0480100906741184
0.0485016485429787
0.0489674124996037
0.0494071030748309
0.0498146574240196
0.0501843820266386
0.0505078705302401
0.0507795426522018
0.0509927579694759
0.0511447205393436
0.0512344701723064
0.0512669472329821
0.0512471704581201
0.0511816905954273
0.0510748218440587
0.0509313733102972
0.0507540458890054
0.0505450652717516
0.0503033585878405
0.0500236207810158
0.0497037371127601
0.0493440337367968
0.0489478252575601
0.0485181588247646
0.0480580222577418
0.0475696812486517
0.0470594189247111
0.0465366823549979
0.0460120191286734
0.045492874038635
0.0449843669590798
0.0444895926591718
0.0440113605350662
0.0435506756900089
0.0431057365291034
0.0426709580694843
0.0422382187364345
0.0418022149675158
0.0413610730707547
0.0409152706395718
0.0404682564633124
0.0400254260874768
0.0395909349165357
0.0391691533384893
0.0387659502772525
0.038386253039332
0.0380339299558521
0.0377109928148575
0.0374150010983877
0.0371401210688512
0.0368798105628565
0.0366295594589086
0.0363838317901667
0.0361456105597381
0.0359155581937941
0.0356987280193507
0.0355003089297082
0.0353331006256658
0.0352669394827813
2.06179762234888e-05
0.000260074776388777
0.000695339004672286
0.000797259506513752
0.000891331796564256
0.000998736982017731
0.00110337101939405
0.00120888467429004
0.00131759918851536
0.00143108403936483
0.00155086998379957
0.00167855598403039
0.00181545556122421
0.00196325233351015
0.00212371951393216
0.00229939040370717
0.00249297249204341
0.0027081833398824
0.00294924389504832
0.00322247436206566
0.00353598223822629
0.00389449067188664
0.0042991213687458
0.00477537651615015
0.00545708921853289
0.00664869285897077
0.00858856894836441
0.0109080032216953
0.0122205530239453
0.0124607464452276
0.0126934127976477
0.0129092593142581
0.0131044794510649
0.0132735831451382
0.0134099892091318
0.0135073091873722
0.0135651919961192
0.0135982375297603
0.0136274874446244
0.0136637891420857
0.0137128318689667
0.0137780076177176
0.0138614919815809
0.0139647191056358
0.0140886350668912
0.014233902405219
0.0144011163383138
0.0145909625292707
0.0148043292647688
0.0150424729302899
0.0153069548320703
0.0155992461848375
0.0159191545167659
0.016261818151224
0.0164888916693693
0.0155502051942969
0.0144266271542897
0.0135044285215757
0.0128817655119094
0.0125646706689713
0.0125120560253071
0.0126461162867946
0.0129140696569339
0.0132683546135269
0.0136846218675801
0.014135959151233
0.0146179949143163
0.0151160347104769
0.0156348219956154
0.0161610981054617
0.0167046148501598
0.0172566086949605
0.0178382690046278
0.0184476038902049
0.0191132370396808
0.0198302733247633
0.0206371736725281
0.0215585351659322
0.022706545568764
0.0242104668834642
0.0263165708858174
0.0294028717493412
0.0340469308081178
0.0401418900834233
0.042318719176586
0.0435601853492976
0.044571089963117
0.0454040928322747
0.0461077297938628
0.0467242594156556
0.0472827386154853
0.0478037409613867
0.0482965136938894
0.0487640659085888
0.0492056757584081
0.0496154828133787
0.0499874812961445
0.0503134975175165
0.0505877443222531
0.0508038072634415
0.0509586296262275
0.0510514673572857
0.0510871726991977
0.0510709433009937
0.0510090643968807
0.0509059584360378
0.0507661420539695
0.0505924691596314
0.0503871811193723
0.050149097634768
0.0498728798597829
0.0495562849207181
0.0491998563910665
0.0488069552081871
0.0483807996538381
0.0479242986297951
0.0474396337350081
0.0469329452813027
0.0464138080166139
0.045892807235689
0.0453774042122807
0.0448725583483613
0.0443812625654425
0.0439061616176076
0.0434482980918148
0.0430059439837228
0.0425735929700747
0.0421431646121225
0.0417093166950615
0.0412703404682185
0.0408268048786444
0.0403821581456583
0.0399418168532836
0.0395099557726019
0.0390908674881912
0.0386902992178498
0.0383130317658107
0.0379628561383427
0.0376417183657735
0.0373472169104073
0.0370736126793419
0.0368144336073841
0.0365653237937889
0.0363207936439158
0.0360838958521419
0.0358553719594949
0.0356402027035308
0.0354436641061195
0.0352772069624618
0.0352095364876319
2.05610486283447e-05
0.000259635995364539
0.000694472661631729
0.00079756488436362
0.000891839381579596
0.000999230369989148
0.00110357248837136
0.00120875290885663
0.00131741583111491
0.00143114080517765
0.00155142428332056
0.00167970548486442
0.00181734749536513
0.00196599422660662
0.00212756409213854
0.00230452780798244
0.00249974399089676
0.0027168671833068
0.00296044146843677
0.00323680466308199
0.00355380959875918
0.00391710017247601
0.00432933140950802
0.00481720241425958
0.00551271295807366
0.00670835169510447
0.00862531096991906
0.0108896028287732
0.0122164507774403
0.0124531112551622
0.0126818571120522
0.0128930321690978
0.0130827287954005
0.0132454287114277
0.0133744917767687
0.0134636182406508
0.0135138899744653
0.0135422708562321
0.01356859143041
0.0136027462313462
0.0136501112118411
0.0137138707240032
0.0137960547993355
0.0138980021672418
0.0140205915725879
0.0141644686582705
0.0143302355723183
0.0145186048863488
0.0147305219186932
0.0149672852764535
0.0152304412931667
0.0155212494595438
0.0158390363970253
0.0161780099514333
0.0161597895951035
0.015141109959974
0.0140497008953039
0.0131966055724934
0.0126411977822868
0.0123756339453159
0.012351152159646
0.0124985104169509
0.0127681819130257
0.0131191214235354
0.0135265365865907
0.0139677134151359
0.014435606354889
0.0149196051582114
0.0154210320219437
0.0159314111659449
0.0164563009349191
0.0169923349151382
0.0175549817849154
0.0181474309399738
0.0187931322103132
0.0194964037697302
0.0202920374854159
0.0212189871576833
0.0223915149352341
0.0239603983722673
0.0261809477683278
0.0294764700328578
0.034360133587634
0.040582465886762
0.0421351436779054
0.0433503323430529
0.04434257376051
0.0451629552759122
0.0458592186995409
0.0464720238695175
0.0470295215832181
0.0475510032027226
0.0480453880281004
0.0485152100476879
0.0489592797448753
0.0493718481459243
0.0497466439236539
0.05007568102721
0.0503530285366445
0.0505724686872703
0.0507307142806191
0.0508272158266878
0.0508668000239974
0.0508548206787909
0.0507972920357886
0.0506986982940063
0.0505633134450863
0.0503940583573218
0.0501932322052062
0.0499595567149024
0.0496876142663411
0.0493750347938046
0.0490226031727398
0.0486337606692359
0.0482119087100676
0.0477598830770788
0.0472797397671208
0.046777455241878
0.0462627420282117
0.0457462507803705
0.0452354487448716
0.0447351127661005
0.0442480899278347
0.0437768480443636
0.0433224486948014
0.0428832610988191
0.0424538888395523
0.0420262996402941
0.0415951089519438
0.0411588009256093
0.0407180690457876
0.0402763517625697
0.0398390882807453
0.0394104701973344
0.0389946989631977
0.0385973695088538
0.038223088137654
0.0378755442371244
0.0375566132269652
0.0372639394153638
0.0369918984654872
0.036734114174252
0.0364864155775564
0.0362433674952422
0.0360081106353267
0.0357814752208649
0.0355683609625561
0.0353740998627538
0.035208797393725
0.0351397019262227
2.04855761849057e-05
0.000259088364031833
0.000693348009705175
0.00079793561444183
0.000892237410732665
0.000999376887623767
0.00110331552248992
0.00120828091525076
0.00131710847658203
0.00143127990602402
0.00155216578012719
0.00168112527448346
0.00181959108418605
0.00196925838781751
0.0021321347148567
0.00231069068689632
0.00250788277264457
0.00272741898136469
0.00297403660676843
0.00325414862135085
0.0035756595253481
0.0039450384640052
0.00436666654749205
0.00486871417021199
0.00557991105219962
0.00677830579642016
0.00866566029284149
0.0108649916098711
0.0122107509919685
0.0124431532233211
0.0126671852465495
0.0128727260555452
0.0130557578831324
0.0132107292304361
0.0133309319516787
0.0134102986859622
0.0134519707986279
0.0134751886842432
0.0134982104292699
0.0135299537176383
0.0135754202566223
0.0136375587100018
0.0137182353701328
0.0138186815932882
0.013939718695752
0.0140819799528824
0.0142460841708429
0.0144327852563201
0.0146430917929493
0.0148783451880127
0.0151400479420022
0.0154291655117334
0.0157442978925713
0.0160788657200177
0.0157300892097444
0.0146445090942004
0.0136089955617521
0.0128393212443835
0.0123597336064062
0.0121504076001184
0.0121572047911029
0.0123179865035664
0.0125887863589329
0.0129343923749276
0.013330925819255
0.0137587233379727
0.0142095461105264
0.0146754982718397
0.0151562200993162
0.0156464066223125
0.0161493079105597
0.0166649882780558
0.0172057898993517
0.0177781484668625
0.0184014777212867
0.0190888478326775
0.0198759155659823
0.0208150476206604
0.0220288703035866
0.0236871522064177
0.0260691985358653
0.0296339352789744
0.0347913211441487
0.0404782508265569
0.0419145110303043
0.0430974358496515
0.0440663634394207
0.0448713335486965
0.0455587822019044
0.0461674109779771
0.0467240399687268
0.0472465004294318
0.0477431050444524
0.048215840694539
0.0486630292627821
0.0490789668712685
0.049457156528554
0.0497897714632565
0.0500707993393768
0.0502942022724123
0.0504564872852479
0.0505572838759366
0.0506014615080869
0.0505945091344815
0.0505421543944643
0.0504488998793104
0.0503188112947268
0.0501548085359644
0.0499592795038634
0.0497308704678623
0.049464030569787
0.0491562619208739
0.048808615098135
0.0484246523112112
0.0480079690037431
0.0475613397506881
0.0470866456976412
0.0465896738811303
0.0460802844839847
0.0455692284232293
0.0450639687185664
0.0445690746961988
0.0440872000691046
0.0436206134166732
0.0431703807583405
0.0427349939381243
0.0423092038113179
0.0418850349632694
0.0414570524975518
0.0410239632519665
0.0405866258052537
0.040148459437223
0.0397149248113509
0.0392902269342675
0.0388784637576435
0.0384850435788382
0.0381143650394836
0.0377699917042653
0.0374537200753561
0.0371632477772016
0.0368930902978892
0.036636994320751
0.036391007575409
0.0361497591639547
0.0359164976709472
0.0356921509615188
0.0354815343603429
0.035289975986368
0.0351264027141718
0.0350562053054007
2.03883625671529e-05
0.000258439844625892
0.000691932621198793
0.000798661300008745
0.000892681426944548
0.000999045732053106
0.00110239359775941
0.00120736960330688
0.0013167102889038
0.00143157196459203
0.0015531519021944
0.00168283860829376
0.00182221387749627
0.00197308241824429
0.00213751765743471
0.00231800877238424
0.00251759208080394
0.00274007530932469
0.00299035708009178
0.00327499079057676
0.00360212475501311
0.00397915949799332
0.00441242744849656
0.0049313787330301
0.00565952597644032
0.00685757500730718
0.00870746285063752
0.0108324305768862
0.0122030035348401
0.012430314999126
0.0126487237169803
0.0128475245191543
0.0130225898924579
0.0131683337863528
0.0132779743183005
0.0133459376897441
0.0133781712036446
0.0133958175949453
0.0134152006060101
0.0134442859074803
0.013487643378494
0.0135479591207236
0.0136269229183826
0.0137256542188435
0.013844923632947
0.0139853545917484
0.0141475948926487
0.0143324573200764
0.014541024407619
0.0147746781027493
0.0150348197910791
0.0153219584936662
0.0156336638243627
0.015963546116551
0.0151788930996788
0.0140583552724325
0.0131055358687154
0.0124335822918136
0.0120380323043933
0.0118868611676699
0.0119261841299886
0.0120997369744074
0.0123703934762942
0.0127081908707311
0.0130910816843913
0.0135017984813387
0.0139318782868727
0.0143753408896236
0.0148313032147575
0.0152966676980196
0.0157736251716007
0.0162644255001085
0.0167797243315864
0.0173287390341755
0.0179285856220832
0.0185999021154791
0.0193845617839353
0.0203487569950745
0.0216286811304041
0.0234120084671932
0.0260186987929784
0.0299201408919871
0.0353716717213461
0.0402569312868607
0.0416493021990166
0.0427937100030081
0.0437348761607821
0.0445219928325497
0.0451996437251474
0.045804109403555
0.0463604036777398
0.0468846692722717
0.047384353663109
0.0478608208109709
0.0483119002507953
0.0487318962424232
0.0491141309934037
0.0494509242177838
0.0497362476707292
0.0499642381295316
0.0501312152953432
0.0502369784549027
0.0502865151582371
0.050285432214776
0.0502391406687544
0.0501521184997559
0.0500282527917565
0.049870401255998
0.0496810642967505
0.0494588455514511
0.0491980024767466
0.0488959021898762
0.0485538910442532
0.0481756951076211
0.0477651173429542
0.0473248870484016
0.0468566568048393
0.0463659886668568
0.0458629020338115
0.0453582890964029
0.0448596011072883
0.0443711707089351
0.0438954058088106
0.0434343460000237
0.0429890468434176
0.0425581507946474
0.0421366001704369
0.0417164902229823
0.0412923216374271
0.0408630549539418
0.0404297631588603
0.0399958370347631
0.0395667531762302
0.0391467239850894
0.0387397348035456
0.0383509670740887
0.0379845748993884
0.0376439694903586
0.0373308581898409
0.0370430010950555
0.036775082285205
0.0365210015662751
0.0362770625998563
0.0360379689466239
0.0358070992340448
0.0355854876145981
0.0353778638645912
0.0351894696379749
0.0350283783832391
0.0349578097526037
2.02650839559516e-05
0.000257638809462192
0.000690155181643855
0.000800046964743645
0.000893061547059812
0.000997923758182446
0.00110065111561308
0.00120606134485247
0.00131633484706694
0.00143209278726444
0.00155441048946117
0.00168485617531097
0.00182524997174559
0.00197753386371364
0.00214382890557459
0.00232664656692748
0.00252910419174834
0.00275513981675345
0.0030098241482739
0.00329990609237541
0.0036339268292765
0.00402045481862498
0.00446805221118562
0.00500690515899779
0.00575253090452293
0.00694468147907254
0.00874746817394816
0.0107909186171171
0.0121926816686822
0.0124139354106615
0.0126256530436732
0.0128164424478421