/*--------------------------------*- C++ -*----------------------------------*\
  =========                 |
  \\      /  F ield         | OpenFOAM: The Open Source CFD Toolbox
   \\    /   O peration     | Website:  https://openfoam.org
    \\  /    A nd           | Version:  12
     \\/     M anipulation  |
\*---------------------------------------------------------------------------*/
FoamFile
{
    format      ascii;
    class       volScalarField;
    location    "0.028";
    object      k;
}
// * * * * * * * * * * * * * * * * * * * * * * * * * * * * * * * * * * * * * //

dimensions      [0 2 -2 0 0 0 0];

internalField   nonuniform List<scalar> 
54000
(
286.306336182193
673.90167928312
870.24217144819
1025.30174084348
1178.73389536118
1327.65586659359
1470.30165689733
1607.72928131694
1740.09628712747
1868.69342389919
1993.87904666491
2116.98840710047
2238.356952386
2359.21118618648
2479.78847257225
2601.1593459876
2723.46215280814
2847.57775236467
2974.02287698911
3102.23275851492
3233.36569259842
3367.8027112854
3504.89962744189
3645.82656842643
3788.61472304578
3928.62426685491
4058.62185132887
4180.73276667599
4305.6571114499
4444.37268276639
4602.01018325443
4778.0961370402
4972.47541006887
5185.2742299947
5416.91957506426
5668.07443654291
5939.13206346693
6229.29918742841
6537.85872839597
6865.50550640592
7213.38652073887
7582.63627461171
7974.30591904018
8389.32166014766
8828.47271593779
9292.40133846799
9781.59941978073
10296.377742033
10836.9817044741
11403.3061922326
11995.3361027176
12612.5236140905
13254.5975026548
13920.6517940582
14610.1215809683
15332.0128450097
16106.5417217865
16947.6250434935
17851.7546210729
18803.2674999308
19793.4303846398
20798.5270998354
21807.0680461965
22810.8357251911
23811.7978808652
24803.0375786672
25788.6291371902
26761.421868041
27726.0338367784
28671.709623105
29601.0091564466
30501.0753306874
31374.9303415325
32207.6429328842
33001.2760125601
33737.6606105521
34415.5792884792
35011.0603480778
35518.1794688835
35907.0046300102
36167.979388456
36272.5414447485
36225.955733339
36034.2185733027
35736.6309409502
35356.0650333494
34923.2626606243
34456.1564396979
33973.300535989
33479.8266202261
32983.4479225632
32482.3742492909
31976.0959327732
31465.0940396479
30944.7082928544
30415.3247168287
29873.3868608307
29320.3407671654
28754.4637979594
28178.6194535274
27592.9360038482
27001.4878739771
26405.619903949
25809.3606552444
25213.8792231055
24622.5417456262
24035.7549996518
23454.5953902239
22880.1590843369
22311.6873826225
21750.1422302307
21195.5877918903
20649.4943303228
20112.0310653904
19584.0778662897
19065.5032039822
18557.2090881776
18059.8080891605
17574.8510401448
17103.3499541051
16646.5327822735
16204.7607854433
15778.3216364413
15366.4945059211
14968.3994208222
14582.8856817758
14208.4132649379
13843.7689101462
13487.8772208765
13140.3344450949
12801.0288046987
12470.4495499683
12149.2691770277
11838.4253658941
11538.640526722
11250.3392637883
10973.4196071864
10707.4768093299
10451.5472386385
10204.4482903648
9964.91336218866
9731.75194325525
9504.23577077044
9282.14078059688
9065.57554859522
8855.32924850478
8652.31920602935
8457.38656946611
8275.78783663861
8112.98359790678
286.59193511029
674.106514054883
870.142895592105
1024.73301256086
1178.41854337487
1327.28457956669
1470.022256548
1607.33649866809
1739.78649576709
1868.27296723093
1993.53526108191
2116.53692735476
2237.97820003882
2358.73399875496
2479.38725428052
2600.68256017789
2723.0886047983
2847.2065181307
2973.42133093513
3101.85658183719
3233.04879353947
3367.24546395177
3504.54470073373
3645.42876399726
3788.24629350506
3927.99027160564
4058.51544788559
4180.98996462941
4305.81634955056
4444.62053146818
4602.36028119325
4778.55751416112
4973.04862860771
5185.97084833418
5417.75164164573
5669.06235252931
5940.27776843055
6230.58399293455
6539.28739921249
6867.09848417139
7215.16550911886
7584.62298239297
7976.52097045014
8391.78590873986
8831.20685587456
9295.42627345136
9784.93590516098
10300.0587872702
10841.0013919154
11407.7183912273
12000.1130728223
12617.7434158734
13260.2103900941
13926.7942315191
14616.7643494747
15339.5116462488
16116.2314913303
16959.1940621493
17864.1082138128
18817.4930729599
19808.2964818831
20814.4482209594
21823.0775073582
22828.0292114602
23828.9967732236
24821.5074251831
25806.8866848204
26780.6245055229
27744.2986521826
28690.7644342106
29618.9789847055
30519.7177735949
31392.0809566261
32225.1753906515
33016.838578007
33753.2413888822
34428.5891440725
35023.4968083037
35527.2422482946
35914.8040332608
36171.7741186064
36274.8693012077
36224.7270534774
36033.0135124185
35734.7175916234
35354.93132234
34922.0705291615
34455.7257330938
33972.7195380763
33479.6565412239
32982.8063762745
32481.5816281165
31975.2819091149
31463.6237418297
30943.0280169491
30412.9534876984
29870.7636825874
29317.0729791718
28750.9653426237
28174.5661564918
27588.6997066682
26996.8011448579
26400.8063388497
25804.2035585308
25208.6531639841
24617.0239274098
24030.150390734
23448.9917581298
22874.4067457132
22305.9555638705
21744.3198438463
21189.8147538483
20643.679808292
20106.2944702914
19578.3515744603
19059.8858684673
18551.6465876179
18054.3736944128
17569.5004542418
17098.1356192503
16641.4169801429
16199.7800197427
15773.4281111695
15361.7225480024
14963.7498141538
14578.3318504497
14203.9791414822
13839.4383380505
13483.6719251317
13136.2419658478
12797.0680960824
12466.6103633316
12145.56388471
11834.8437124275
11535.1871790414
11246.9998954083
10970.193601484
10704.3443909904
10448.512436322
10201.5056760032
9962.05038291523
9728.97924259525
9501.55490554446
9279.54550543838
9063.07646225317
8852.92541356996
8650.00603844832
8455.15637121721
8273.61029069779
8110.86671589931
286.764999839019
674.021609003681
869.779350581688
1024.09508437496
1177.76620757714
1326.59430547729
1469.32435821064
1606.58186401764
1739.0219191921
1867.45273689309
1992.70550814541
2115.65282193358
2237.08855703314
2357.79975784847
2478.46201897165
2599.73544470497
2722.17074809014
2846.27595803611
2972.43212688554
3100.95766888406
3232.18143293908
3366.32729053399
3503.71849067113
3644.61275421293
3787.43629405172
3927.15142442059
4058.01147445496
4180.81069781398
4305.77961457901
4444.75935813099
4602.66788198257
4779.03537118786
4973.70080624217
5186.81150640635
5418.80188101319
5670.35197527031
5941.80714634795
6232.32388184609
6541.2445319362
6869.30637602902
7217.65847808717
7587.43516219695
7979.68551209801
8395.33565125562
8835.17458437221
9299.84489981663
9789.8380394554
10305.4823810766
10846.9659247676
11414.2698574211
12007.2587651758
12625.5407483206
13268.6627003042
13936.0195423264
14626.8634263575
15351.2649536081
16131.008023199
16976.7580896425
17883.6468586446
18839.1955111382
19831.324146355
20838.5693327053
21847.8127975153
22853.9440363167
23855.4992461787
24849.2274894344
25835.0000321884
26809.5284707805
27772.7419243453
28719.3563300147
29646.7734572282
30547.4765816895
31418.4561066332
32250.9594955432
33040.5401324915
33775.6786205533
34448.0372552575
35040.6406162304
35540.1553873181
35924.2426398552
36176.0475496814
36275.4990737224
36221.2769532653
36028.7310637361
35730.1954039299
35351.2016403829
34918.807717501
34453.3435187665
33970.5745198405
33477.900800342
32980.7566535931
32479.305664417
31972.7515773736
31460.380125446
30939.2683279015
30408.3797022239
29865.6227968379
29311.1555226755
28744.5339791246
28167.4692694431
27581.1877201273
26988.7606872233
26392.464427777
25795.4743778581
25199.7317698549
24607.799387606
24020.7852922889
23439.5674586938
22864.8520747443
22296.3895245378
21734.6982297182
21180.2384301309
20634.1155893568
20096.8315577074
19568.9695500776
19050.6599244023
18542.5594798414
18045.4794800114
17560.7813081479
17089.6271310242
16633.098081144
16191.6708172795
15765.4924729886
15353.9804658022
14956.1992960803
14570.9538422456
14196.7883217635
13832.4275746451
13476.8577087236
13129.6213838278
12790.6572701473
12460.4063338256
12139.5752366823
11829.0629707571
11529.6123571493
11241.6149005181
10964.9894057571
10699.2988322093
10443.6213512168
10196.7610714475
9957.44068001178
9724.51228987016
9497.23447032697
9275.36898607123
9059.05355963891
8849.05613788639
8646.28571306863
8451.56942430624
8270.1112450261
8107.46430507395
286.766796100602
673.664073846604
869.181987344747
1023.25888059036
1176.77766900298
1325.51383546348
1468.18590492851
1605.38340475835
1737.7753196223
1866.14791831257
1991.35296355628
2114.24452254046
2235.64100539283
2356.31128855285
2476.95546810944
2598.21217963764
2720.64635742356
2844.74034571304
2970.89157520625
3099.46196151662
3230.71576804421
3364.88163193996
3502.33689802343
3643.25993207719
3786.09966316593
3925.88227190565
4057.04050775306
4180.22698765801
4305.49983500922
4444.73878439624
4602.88849678529
4779.49345476236
4974.40245025011
5187.77513333025
5420.05779947562
5671.94063197162
5943.72555790536
6234.53089585581
6543.75149407317
6872.1612879578
7220.90987604051
7591.13125725354
7983.87341441917
8400.06188345809
8840.48557488431
9305.78706454118
9796.45737882061
10312.8270356112
10855.0745240388
11423.1921365628
12017.0248009924
12636.2050030801
13280.2610439498
13948.6778430761
14640.8131775603
15367.7543026798
16151.6392220153
17001.2636374656
17911.2070246615
18869.4592348172
19863.5305267047
20872.0385791325
21882.3021072416
22889.7588739754
23892.3315340577
24887.3899760773
25873.9914335822
26849.43566208
27812.5327314011
28759.1072678678
29685.6672236183
30585.7984387512
31455.2142890595
32286.297747876
33073.3367758585
33806.0387203342
34474.5675926785
35063.1867711471
35557.0925472571
35935.5001300026
36180.4365972782
36274.1327873106
36214.8990765917
36020.8747235314
35722.390566986
35344.363745642
34912.9172630216
34448.5824169901
33966.3951904999
33474.1791563405
32976.8709171401
32475.1156656177
31968.1117521859
31454.9006280692
30932.9949136988
30401.1010201585
29857.481488103
29302.0433066419
28734.6414002631
28156.7478249715
27569.8358818623
26976.7609011051
26380.0060686526
25782.5547197678
25186.5137958194
24594.2492046868
24007.0404796606
23425.7180751974
22850.8790286733
22282.3920232165
21720.6746634733
21166.2754509203
20620.217737331
20083.0780421092
19555.3711563117
19037.2843992221
18529.4138983996
18032.6108173748
17548.1883282486
17077.3374572304
16621.0995291699
16179.9732280842
15754.0657738915
15342.8319473498
14945.3247432979
14560.3377212159
14186.4401945797
13822.3457828488
13467.0570961728
13120.1060090643
12781.4434125911
12451.4962371686
12130.9756318141
11820.7670178252
11521.6123728724
11233.8909269533
10957.5243479321
10692.0663570723
10436.609004495
10189.9576633162
9950.83500122301
9718.10999831082
9491.04155455998
9269.38645407157
9053.29080788018
8843.51393118192
8640.95870780092
8446.43413665317
8265.1053319455
8102.59712255482
286.591915464052
673.030338952549
868.319553801521
1022.14571994431
1175.4157001614
1323.98950254551
1466.55410465562
1603.66515335969
1735.97791696688
1864.27066088615
1989.39822421956
2112.21525307067
2233.54776808037
2354.16462980153
2474.77160678258
2596.00203092853
2718.41933604265
2842.50317534511
2968.66396151103
3097.26395920794
3228.55297804444
3362.76821202116
3500.28519416027
3641.24837132412
3784.12020139048
3924.02105086488
4055.5116433444
4179.19664814946
4304.91413597456
4444.50095469602
4602.97206561072
4779.89051079688
4975.12066305111
5188.83837771187
5421.50652484334
5673.82668315931
5946.03973976365
6237.21948947696
6546.83373740924
6875.70147593134
7224.97256532372
7595.7805580509
7989.1721114514
8406.0720781075
8847.2691540059
9313.40573120581
9804.97227592391
10322.2997856174
10865.5610318934
11434.7517342191
12029.7053512567
12650.0661068567
13295.3618690946
13965.1587986033
14659.0917072248
15389.6583371468
16179.0313126347
17033.7606114758
17947.8426490467
18909.4776857259
19906.0806494271
20916.0783849266
21927.7151442519
22936.712112727
23940.6575030965
24937.2252357679
25924.9903361371
26901.519729952
27864.9190687629
28811.4826054793
29737.092777175
30636.16946105
31503.640264566
32332.4805451425
33116.2536089325
33845.3002395553
34508.8082675877
35091.6261891231
35578.0922582778
35948.4125821756
36184.3248435998
36270.0503823741
36204.6659675942
36008.6840381074
35710.5168878081
35333.7385135074
34903.7316031451
34440.8682906809
33959.6073564682
33467.9752084751
32970.6078432888
32468.4740161227
31960.8350180083
31446.610709417
30923.632879831
30390.4946637238
29845.7124955753
29289.0654589791
28720.6134515117
28141.6923351012
27553.9353962463
26960.0672956399
26362.7019311367
25764.6988933001
25168.2622306342
24575.6260662473
23988.1747398107
23406.7125603604
22831.7542932997
22263.2436378162
21701.5330180552
21147.2260731321
20601.2940268263
20064.359823226
19536.8931923984
19019.1153877784
18511.5794770291
18015.1570941929
17531.1259063014
17060.6903216183
16604.8604426537
16164.1444621747
15738.6194609478
15327.7644393091
14930.6284123894
14545.9982690113
14172.4640357735
13808.7352144033
13453.8272207756
13107.2667625603
12769.0129414297
12439.4810010609
12119.3814027429
11809.5863153116
11510.8318200497
11223.4852487835
10947.4679674913
10682.3270903074
10427.166057528
10180.795724971
9941.94252081872
9709.4912291609
9482.70460051866
9261.33581514006
9045.536372234
8836.05690343794
8633.79253617133
8439.52734569807
8258.37728606417
8096.05767197079
286.224616818927
672.0935388994
867.134031027543
1020.67629311476
1173.622721571
1321.96326229622
1464.36401134023
1601.34717087027
1733.54408681673
1861.7244026189
1986.7424134209
2109.45772757296
2230.70077818751
2351.24396153271
2471.7939725144
2592.98276834997
2715.3711316475
2839.44217264343
2965.61297373253
3094.2377466396
3225.56789450821
3359.84642912346
3497.43087101144
3638.44368869447
3781.36257614562
3921.42072026289
4053.31495896022
4177.63993298544
4303.94574530176
4443.97944865813
4602.86163998663
4780.17916078877
4975.81771994722
5189.97424246613
5423.13326068928
5676.00759340126
5948.75561526977
6240.40428828602
6550.51882486806
6879.9694010818
7229.90591997079
7601.46129660284
7995.68071970049
8413.48831134352
8855.67237033465
9322.87499399388
9815.58586012514
10334.1352767126
10878.691693629
11449.2498095191
12045.6346022919
12667.4955333877
13314.3696222049
13985.8809523172
14682.259960927
15417.8882077221
16214.2865891024
17075.4759561144
17994.8240704748
18960.6188343538
19960.3171326256
20972.0670105635
21985.4130324111
22996.2078861833
24001.8507132317
25000.140651757
25989.3456646441
26967.1188411776
27931.110159848
28877.7206530965
29802.6178745327
30700.1829836403
31565.1557859807
32390.8409532695
33170.3789608114
33894.3924689875
34551.3419342534
35126.2636865093
35602.9979969441
35962.484427369
36186.7929540594
36262.1814551698
36189.4455808955
35991.2255541309
35693.6522604443
35318.4921850121
34890.4577825837
34429.4833446011
33949.5121249793
33458.6295445893
32961.2935361059
32458.7065541948
31950.2433342582
31434.7949998697
30910.4515800293
30375.7907058298
29829.5294561913
29271.4009030952
28701.6167816629
28121.4431384496
27532.6209321841
26937.7976682605
26339.6708940945
25741.0177273017
25144.0945239624
24551.0439283124
23963.3106899079
23381.6842806487
22806.6158184212
22238.0961930234
21676.434609513
21122.268821192
20576.5364621711
20039.8885574699
19512.7637895485
18995.4023515085
18488.3244006466
17992.4086321841
17508.9040906835
17039.0176461504
16583.7323435132
16143.5566866097
15718.5434252773
15308.1865503037
14911.5362099992
14527.3770405755
14154.3179355176
13791.0698130804
13436.6590092303
13090.6111276346
12752.8909776987
12423.9029108996
12104.3523670772
11795.0972930887
11496.8632406918
11210.0052960242
10934.4417589382
10669.7149404542
10414.9385052929
10168.9324351236
9930.43086963979
9698.33466863849
9471.9133521017
9250.9177716123
9035.5025991186
8826.40879479339
8624.52174317023
8430.59449039811
8249.6823205199
8087.61066741236
285.635323526634
670.80982780918
865.558994422671
1018.76668091839
1171.32656716138
1319.36590722364
1461.54004334506
1598.3414623353
1730.37538577033
1858.40080882819
1983.27113832175
2105.85125944843
2226.97544183626
2347.41926873458
2467.88948878598
2589.01786582606
2711.36422351091
2835.41540562364
2961.59101799896
3090.23868841363
3221.61473659042
3355.96423999307
3493.62317795431
3634.69273385644
3777.67140728968
3917.92843617089
4050.32468249195
4175.45668208719
4302.50715472363
4443.09913206593
4602.49287531601
4780.30557529573
4976.45065017348
5191.15188183374
5424.92116635814
5678.47955368234
5951.87767092317
6244.09975855327
6554.83650809234
6885.01207186069
7235.77641641536
7608.26162043592
8003.51135389845
8422.44897403837
8865.86225873245
9334.3927887442
9828.52911909176
10348.5998680245
10894.7691898255
11467.0276029345
12065.1919014763
12688.9136531174
13337.7450257312
14011.2755672313
14711.0586328638
15453.6790175674
16258.7552866846
17127.871360712
18053.6702837922
19024.4824039634
20027.7861240687
21041.5928858225
22056.9935432544
23069.8844951514
24077.5487116233
25077.8033390608
26068.6976438589
27047.8588501072
28012.6145504931
28959.3416063721
29883.5176062929
30779.4782974403
31641.3162665477
32462.7717340425
33236.834855204
33954.1848074609
34602.6393021438
35167.1659242302
35631.3488442504
35976.8112386944
36186.51743873
36249.0749504133
36167.8876952041
35967.4273795932
35670.7139163656
35297.6331551089
34872.1594508003
34413.556110572
33935.2603321284
33445.3192177427
32948.0915695694
32444.9681291174
31935.4780435447
31418.5592586977
30892.5334784185
30356.0348078875
29807.9561060689
29248.0426134234
28676.6291052306
28094.9567944072
27504.8424452721
26908.8909586811
26309.8536291189
25710.4500048416
25112.9578244441
24519.4528081413
23931.4100579707
23349.6088149549
22774.4497527411
22205.9527233938
21644.3976245653
21090.4424283059
20545.0028215115
20008.7453067871
19482.0858439816
18965.2733213446
18458.8005800761
17963.543356649
17480.7253371284
17011.5475227841
16556.9672802179
16117.4861066433
15693.1355171523
15283.4179551558
14887.3882381204
14503.8331180066
14131.3803075052
13768.7469218454
13414.969494814
13069.5756525818
12732.5343629979
12404.2388317523
12085.3855075278
11776.8162061877
11479.2413553611
11193.0030561009
10918.0138846473
10653.8125517646
10399.522814767
10153.9772107494
9915.92170286979
9684.27458065988
9458.3147742452
9237.79195338432
9022.86230803729
8814.2554120343
8612.84445410244
8419.34638595621
8238.74321185131
8076.99021309904
284.790434155894
669.119119861928
863.523755301269
1016.33591470753
1168.44312440047
1316.11508124092
1457.99499123603
1594.54917020985
1726.36006344396
1854.1772649204
1978.85400169034
2101.25927938855
2222.23010957439
2342.54395922199
2462.90764824594
2583.95341531969
2706.24150264329
2830.26140511152
2956.43346974248
3085.10173421134
3216.52649515492
3350.95124147421
3488.68925951112
3629.81824174608
3772.86778799787
3913.3759165799
4046.39941075803
4172.53244558441
4300.50126469968
4441.77591155488
4601.79355419548
4780.20904030486
4976.97084246749
5192.33639050682
5426.85140479581
5681.23712199648
5955.40829926722
6248.32019648392
6559.81906493637
6890.88177602333
7242.65880254154
7616.28124079803
8012.79129379327
8433.11154620641
8878.02920488296
9348.18491764946
9844.06558050408
10365.997146315
10914.1385551139
11488.473311874
12088.8088129707
12714.7980109899
13366.0212363584
14041.993667242
14746.5668211392
15498.4875980677
16314.098086727
17192.7111994424
18126.1978989495
19102.9625177589
20110.2708331014
21126.5109486559
22144.3453778208
23159.6790182488
24169.7116795293
25172.2094683688
26165.0395533342
27145.7260967384
28111.3330603378
29058.1174457199
29981.3802948185
30875.3996877073
31733.7407637935
32549.7125126068
33316.7285032862
34025.4281736571
34662.9538937805
35214.0381626716
35662.2163839739
35989.929418215
36181.6326282958
36228.8356978554
36138.4022540954
35936.0790685987
35640.4207736461
35269.9904389199
34847.7272345802
34392.0303834155
33915.8123707881
33427.0161367297
32929.9553607939
32426.1931733848
31915.4505938655
31396.7776604732
30868.7238285396
30330.0364504307
29779.7775619452
29217.7483088712
28644.3931017107
28060.9599718972
27469.322253785
26872.064705468
26271.9730608583
25671.7235933972
25073.5927710254
24479.6034721226
23891.2402928597
23309.2725022882
22734.0596964015
22165.6388522397
21604.2694228107
21050.620092719
20505.5917927074
19969.8573831605
19443.8146986479
18927.714082694
18422.0236729998
17927.6081532476
17445.666643169
16977.3874699026
16523.7017868442
16085.0978528074
15661.5871174538
15252.6757350008
14857.4258036637
14474.6306237465
14102.9380907775
13741.0759875147
13388.0911427451
13043.5157334369
12707.3219948748
12379.8909708166
12061.9062273521
11754.1907516473
11457.435078425
11171.9674174058
10897.6918723274
10634.1443012182
10380.4592502696
10135.4852949368
9897.98455349144
9666.89496825251
9441.50745474512
9221.57155838708
9007.24369745106
8799.23973213261
8598.41766887066
8405.45469701585
8225.24610839317
8063.89539134778
283.658867495695
666.960831584723
860.952798225022
1013.29623515333
1164.87708191345
1312.11610431402
1453.62871492864
1589.85736180221
1721.37068756549
1848.91457928697
1973.34323688424
2095.52742348138
2216.30461979876
2336.45262560032
2456.67845505267
2577.61532137146
2699.82457539542
2823.79745702084
2949.95466967393
3078.63891573485
3210.11254658748
3344.61372430406
3482.43053023119
3623.61518533536
3766.74588635405
3907.57361702618
4041.38060800089
4168.73919055425
4297.82067159815
4439.91635529478
4600.68313524244
4779.82146543121
4977.32360598301
5193.48856992623
5428.90316616403
5684.27253733367
5959.34693995378
6253.07982814375
6565.50177988833
6897.63705413028
7250.63761416469
7625.63353599304
8023.66574001891
8445.65608965874
8892.3910704807
9364.50991144453
9862.4970601954
10386.6745203225
10937.1944017085
11514.0301263492
12116.9771408176
12745.6915854931
13399.805730325
14078.9167826985
14790.2258908535
15554.1187898684
16382.3723272329
17272.1385693747
18214.5818444835
19198.3414507825
20209.8180748681
21229.0082337234
22249.7126803622
23267.8967935977
24280.6886165334
25285.7536773206
26280.78018438
27263.1281970765
28229.6090348291
29176.2834687212
30098.2450539499
30989.6177562658
31843.6852039772
32653.2005148519
33411.0626761419
34108.6343180288
34732.1480632865
35266.0124584296
35693.9637938583
35999.5955276466
36169.5670824725
36199.0679250984
36099.1347127354
35895.4874498186
35601.2538484246
35234.1849340819
34815.8373041167
34363.6167874521
33889.8809806492
33402.426051332
32905.5615721893
32401.0276201613
31888.7743255413
31368.0230785451
30837.5625849237
30296.3010848652
29743.4751210818
29178.9763774564
28603.3553698307
28017.8899882451
27424.4987244662
26825.7605496533
26224.4829269137
25623.3059184251
25024.4868197159
24430.0024818377
23841.332103658
23259.2323138512
22684.0281613491
22115.7664648495
21554.6918509269
21001.4768933689
20457.0119305043
19921.9691786538
19396.7303743481
18881.5420751067
18376.8483017505
17883.4955901453
17402.6574473365
16935.5036026123
16482.9370736983
16045.42725408
15622.9652939544
15215.0575106308
14820.7753995477
14438.9234176804
14068.1722189186
13707.2647157847
13355.2587360183
13011.6931296523
12676.5429959776
12350.1756161478
12033.257661798
11726.5898521522
11430.8377696308
11146.3148467517
10872.9137228997
10610.1677681562
10357.2237428185
10112.94998031
9876.12937725412
9645.72248900677
9421.03484314614
9201.81687452573
8988.22417898081
8780.95598653661
8580.85161128762
8388.54636538626
8208.83522304577
8047.98397403597
282.207336058007
664.273560666214
857.764039164187
1009.55156247719
1160.52489573144
1307.26423467622
1448.32619841717
1584.13477323866
1715.26063034654
1842.45460361732
1966.57206756546
2088.48170658667
2209.01832219766
2328.95858798022
2449.00983549497
2569.80658601162
2691.91151540756
2815.81708916263
2941.9445115312
3070.63646233583
3202.15554053182
3336.73052897147
3474.619511237
3615.84825539461
3759.0697861864
3900.30578742786
4035.09008309758
4163.93361422004
4294.34602451412
4437.41739836843
4599.07244093801
4779.06690851005
4977.44772448827
5194.5647257591
5431.05354019218
5687.57459074843
5963.68911939767
6258.39307653106
6571.92362181251
6905.3439718153
7259.80908257034
7636.4481798725
8036.30120079572
8460.2894358184
8909.19835929671
9383.66511577161
9884.17059199088
10411.0310748544
10964.3895534306
11544.2056970144
12150.2588425907
12782.2117796827
13439.7579179953
14123.1063850458
14844.0445759773
15622.958407009
16466.136118667
17368.7571633512
18321.4237966087
19313.166331864
20328.9847889518
21351.6875565791
22375.7727625272
23397.2913712203
24413.2948218277
25421.3059167496
26418.8130055297
27402.9546680936
28370.2658667504
29316.537994748
30236.5992894134
31124.3218339301
31972.6679333141
32774.1685022187
33520.6007208799
34203.8588603054
34809.4058073351
35321.3113163459
35723.8985005482
36002.4978364919
36146.8809687895
36156.8636104971
36047.9141221619
35843.6637573991
35551.5101814494
35188.5889915374
34774.8916818195
34326.7223668729
33855.8511741166
33369.9032369618
32873.2197319167
32367.7370491252
31853.6729012907
31330.4755746441
30797.1949946122
30252.9423223215
29697.1415999894
29129.8036809516
28551.5878444078
27963.8190999715
27368.4543235383
26768.0752986345
26165.5024959467
25563.3416585961
24963.815379375
24368.8559776186
23779.9262931434
23197.7656030352
22622.6687346296
22054.6885415966
21494.0583977392
20941.4494629393
20397.7434758848
19863.6062414141
19339.4035687826
18825.3743954383
18321.9378268114
17829.9155012344
17350.4527671395
16884.6952961544
16433.51501451
15997.35713473
15576.1912314893
15169.5210423512
14776.4293644967
14395.736700356
14026.1401573467
13666.4024814291
13315.5936711499
12973.2610602973
12639.3825933764
12314.3097226226
11998.6879407026
11693.2914921583
11398.7556375186
11115.3783096178
10843.0373544721
10581.2636306498
10329.218249773
10085.7934107091
9849.79776151142
9620.21809407593
9396.37728921916
9178.02766651059
8965.32311493329
8758.94269456756
8559.70310828169
8368.19689993128
8189.10606506441
8028.86308832625
280.38641557842
660.988214777419
853.865701818503
1004.99953843271
1155.28193384331
1301.44630568282
1441.95291337129
1577.22616462528
1707.86038353417
1834.61812441945
1958.35295125453
2079.92638185506
2200.16751113262
2319.8509769115
2439.68459855245
2560.30430588547
2682.27397491418
2806.0869379897
2932.16504691169
3060.85155529503
3192.40778892879
3327.04887461876
3464.99645024149
3606.24982572402
3749.5709334717
3891.3252064015
4027.32579563648
4157.95393235954
4289.94426194174
4434.16667222306
4596.86366291816
4777.86116850456
4977.27504468734
5195.51655927917
5433.27697143422
5691.12694293116
5968.42564722672
6264.27506919843
6579.12820053933
6914.07777832549
7270.28354924874
7648.87437104071
8050.88970108688
8477.25039968719
8928.74050545608
9405.99409285866
9909.48690293427
10439.5270285278
10996.2453544099
11579.5835123539
12189.2985287581
12825.0672879982
13486.5166432062
14176.2339853044
14911.0763320579
15708.1233619138
16568.5547319641
17485.717310736
18449.83487713
19450.3776149482
20470.8332726683
21497.6606889245
22525.7310334489
23551.1610246601
24570.9056883096
25582.3014527535
26582.5955879937
27568.641457479
28536.6445671066
29482.0446664088
30399.3209667686
31281.987507578
32122.611176631
32913.2426124945
33645.6640055739
34310.3217693669
34892.7628828363
35376.7325151156
35747.7983633277
35993.923130275
36109.161708464
36098.8875082212
35982.4444434856
35778.4611972755
35489.186673673
35131.2472116858
34722.9271954468
34279.348052112
33811.6675169072
33327.3321528893
32830.7500320899
32324.0838778946
31807.8587880538
31281.8025977553
30745.2550648293
30197.5685731972
29638.372238924
29067.8204285669
28486.6873884696
27896.3584032729
27298.824355605
26696.6740050774
26092.7342962779
25489.574640198
24889.368052919
24293.9996430044
23704.9075677629
23122.8076064982
22547.966883194
21980.4433359338
21420.4614808147
20868.6864200444
20325.9916190668
19793.0313442174
19270.1542310347
18757.5888435266
18255.7276667672
17765.360531492
17287.6007221419
16823.5645743914
16374.0892001116
15939.5904664308
15520.0143206748
15114.8597304889
14723.2226907455
14343.9450216838
13975.755068624
13617.4405871572
13268.0852986898
12927.2465364284
12594.9053903494
12271.395039381
11957.3351185848
11653.4683277834
11360.3940508028
11078.3941880038
10807.3281554053
10546.7237862494
10295.7594203114
10053.3557794398
9818.35263211764
9589.76724302847
9366.94273484167
9149.63428980073
8937.99332942465
8732.67452031908
8534.46785670532
8343.92242304087
8165.59653046698
8006.07422413333
278.230902590968
657.008865851883
849.157478377756
999.534816658783
1149.04757493999
1294.53261235441
1434.3431542595
1568.9455613094
1698.97515772896
1825.20358721278
1948.47563494125
2069.64116570708
2189.52218091385
2308.89128852461
2428.45690972877
2548.8561112699
2670.65352135406
2794.34292437239
2920.3467230684
3049.00872301423
3180.58741779777
3315.27996906499
3453.2652063922
3594.51789886877
3737.94709884141
3880.347218146
4017.8531175962
4150.61445319429
4284.46815483313
4430.04459240846
4593.95089627611
4776.11145654376
4976.73013690909
5196.29129335357
5435.54388242702
5694.90574826137
5973.54237888051
6270.74241258412
6587.16512038069
6923.92507842835
7282.18856072234
7663.08499195266
8067.65406682627
8496.816281677
8951.35361481792
9431.89563894442
9938.91070028853
10472.6950640453
11033.363884182
11620.8364760516
12234.8391195748
12875.0894697199
13541.3632916102
14241.2759372383
14995.1646691476
15813.5643875793
16693.5159360861
17626.8076242554
18603.5660651241
19613.4117404298
20638.9937855994
21670.6641158271
22703.4413297996
23733.4697511149
24757.5736225615
25772.8495684361
26776.2413211355
27764.2370788396
28732.6294574197
29676.4034160373
30589.5765010668
31465.1801887273
32295.2815957863
33071.3948397502
33785.1685498553
34425.8569501153
34978.3495784248
35426.8977593797
35759.3272698208
35967.4727695956
36051.0979440752
36021.6268419632
35900.5190146191
35697.3855453506
35411.8711476811
35059.7549372602