/*--------------------------------*- C++ -*----------------------------------*\
  =========                 |
  \\      /  F ield         | OpenFOAM: The Open Source CFD Toolbox
   \\    /   O peration     | Website:  https://openfoam.org
    \\  /    A nd           | Version:  12
     \\/     M anipulation  |
\*---------------------------------------------------------------------------*/
FoamFile
{
    format      ascii;
    class       volScalarField;
    location    "0.028";
    object      nut;
}
// * * * * * * * * * * * * * * * * * * * * * * * * * * * * * * * * * * * * * //

dimensions      [0 2 -1 0 0 0 0];

internalField   nonuniform List<scalar> 
54000
(
0.000332282555844252
0.00423791978105423
0.0112286277201156
0.0132495604623364
0.0150915155066791
0.0173564854970151
0.0194384008964826
0.0218093131964556
0.0240379255151541
0.0266535220970603
0.0291227538972482
0.0320916916896903
0.0349325111471084
0.0384083819070252
0.0417824787273814
0.0459458351922835
0.0500042297004914
0.055087474066902
0.0605601948466723
0.0663482117549654
0.0736930944731722
0.0817530086379058
0.0902882033899009
0.101052693277726
0.115210017477616
0.142494424005098
0.18650099981902
0.240014622639747
0.270477117965878
0.274627353421866
0.27877428920186
0.28277245397218
0.286473000771036
0.289721259466645
0.292361600828566
0.29423696444873
0.295258562271413
0.295628564351353
0.29577075976949
0.295932442259746
0.296227113848243
0.296713802145257
0.297417280366377
0.298342393016922
0.299482018378912
0.300822468584835
0.302347156783085
0.304039122099026
0.305884514434958
0.307870567879316
0.309993031603772
0.31225075938639
0.314657845970833
0.317235240584479
0.320035996253824
0.30950106092575
0.284908975155995
0.262066946637903
0.243774016004519
0.231040353100025
0.224871923303158
0.221490490819321
0.221632532226257
0.222249832117919
0.224593021205899
0.226391343383911
0.229129156814352
0.231081105039145
0.233580982244123
0.23527892930681
0.237180355019051
0.238483936940643
0.239867973169732
0.241146865091821
0.242400776500966
0.244005150066991
0.245243489857654
0.247594802325191
0.249784305930873
0.255375916845256
0.261604028367236
0.275068712507878
0.295954920921953
0.321898425872144
0.347804461876764
0.341458384024556
0.334815122454141
0.328060277572827
0.321369643737745
0.314829720639073
0.308513948349701
0.302430914946299
0.296578511556856
0.290949500370559
0.285505984279894
0.280229801214425
0.275083049741684
0.2700511748683
0.265106295721419
0.260243805404087
0.25544920315818
0.250729573263584
0.24608200675572
0.241518152537305
0.237038005170006
0.232653842615064
0.228365580779674
0.224176221316054
0.220088816108226
0.216097806654977
0.212207278276949
0.208418476981462
0.204739689919417
0.201170659810525
0.197711333379819
0.194353939415203
0.191095421824681
0.187932565247351
0.184869026109033
0.181907560401744
0.179053543428354
0.176309082940348
0.173676843521248
0.17115464006709
0.16873924232872
0.166425232728031
0.164203889325023
0.162067023880073
0.160006190892263
0.158015917513832
0.156091537711524
0.15423173846626
0.152436764796884
0.150709639155449
0.14905367375395
0.147471924246155
0.145966082393061
0.144537871694739
0.143186271014103
0.141908425545917
0.140699539837355
0.139553253750521
0.138464341524552
0.137428832847407
0.136443646847493
0.135511325458504
0.13463559617108
0.133821966594693
0.133099775203914
0.13247566841704
0.000332604346816532
0.00424054786525624
0.0114115302396934
0.0133452634673105
0.0152191463856592
0.0174473767577916
0.0196179726889588
0.0219335733221573
0.0242611215859974
0.0268090854365195
0.0293939688273461
0.0322855882122651
0.0352605928351716
0.0386471177955924
0.0421697644888725
0.046221284835319
0.0504566403413256
0.0554507749356226
0.0609421119590504
0.0669285705926131
0.0741993455448937
0.0823270034648936
0.0911160714798861
0.101800602707508
0.116429372846002
0.143560685565649
0.186943343782778
0.242194555121539
0.270451298548552
0.274590974386758
0.278724568169999
0.282706792435133
0.286387719719119
0.289612958815717
0.292226285431398
0.294070818116294
0.295061399526511
0.29540949689203
0.295539273865107
0.295692661689604
0.29598134705038
0.296463210452464
0.297162382395908
0.298083335008857
0.299218749957624
0.300554873246623
0.302075169924306
0.303762949493295
0.305604042712598
0.307586716822557
0.309706175430336
0.31196301615543
0.314370723837457
0.316953091049426
0.31976328488551
0.309734171591347
0.285430956719555
0.262356502976458
0.24421926331656
0.231922473892841
0.225741846480871
0.222611092671561
0.222717660702642
0.223444597150605
0.22580930591309
0.227599666897948
0.230456664048379
0.232265127088621
0.235005123413075
0.236404926602191
0.238702213508932
0.239531977048236
0.241492731972774
0.24209047184399
0.244143507309686
0.244806028991903
0.247144330344546
0.248212432952485
0.251960911313089
0.255671363860024
0.264456659074165
0.276784727442217
0.300352379774926
0.331531886238265
0.34730614719703
0.340985764248026
0.334363547576478
0.327632538813845
0.320960304221416
0.314439927599208
0.308138340689106
0.302069654564536
0.296231151707393
0.290612300974548
0.285180245872573
0.279912791961848
0.274776291373671
0.269752520766997
0.264817285507612
0.259962663575142
0.255177311441683
0.250465390362503
0.245826685541356
0.241270347499312
0.23679862115422
0.232421472788741
0.228140794198882
0.223959079948153
0.219878275511576
0.215894355255463
0.212010073752527
0.208227892985383
0.204554984082302
0.200992148520396
0.197538430306662
0.194186913302693
0.19093376937328
0.187776435141447
0.184717953830889
0.181761582512021
0.178912219420655
0.176172360428614
0.173544221416071
0.171026066725852
0.168614509065593
0.166304003229062
0.164086139966378
0.161952525929528
0.159894959927626
0.157907786051212
0.155986547772595
0.154129755691011
0.152337797236532
0.150613549075044
0.148960405212102
0.147381285359618
0.145877960378086
0.144452013900335
0.143102584198882
0.141826764316552
0.140619721625812
0.139475279924943
0.138388174227491
0.137354392945631
0.136370994886891
0.1354404429221
0.134566429260509
0.133754433802351
0.133033624653562
0.132410687687129
0.000332818025952066
0.00424097070431462
0.0114650465970794
0.013372448267708
0.0152445828327662
0.01744884926527
0.0196495929041751
0.0219438256908677
0.0243071510508894
0.0268247822814207
0.0294541910056931
0.0323125649091935
0.0353438118403437
0.0386904442099066
0.0422770853404839
0.0462797242111178
0.0506117578750554
0.0555618766506632
0.0610544610535127
0.0671700696629355
0.0743929221846409
0.0825491425000898
0.0915289289521925
0.102187757272793
0.117142973764878
0.144104223863305
0.188074881423177
0.242643520338432
0.270400515277476
0.274525280816433
0.278639066311844
0.2825968572482
0.286247971985744
0.289437908083244
0.292009906489761
0.293807165326006
0.294750576075264
0.295065824201846
0.295176973572975
0.295317971072085
0.295597755407417
0.296072453291312
0.296765200766454
0.29767989269553
0.298808915708813
0.300138418211359
0.301651933524173
0.303333016470056
0.305167546077774
0.307144590644421
0.309259516286241
0.311514365113338
0.3139231529017
0.316512257421864
0.319337538710623
0.308324435747372
0.284056442143925
0.261076800487098
0.243227862326162
0.23135768244295
0.225223773609846
0.222385481147851
0.22237457759837
0.223312923018871
0.225486010962855
0.227478553190263
0.230106778485968
0.232125213447138
0.234602889691762
0.236229159384927
0.238244211362093
0.239329639115719
0.24098839867583
0.2418724843443
0.243600785362539
0.244594296393068
0.246595378703618
0.248082841233412
0.251516987471794
0.255829097621735
0.264473784505713
0.277669119050832
0.301511499911684
0.333599693643906
0.346516595929216
0.340233370427257
0.333645490021966
0.32694949528106
0.320307523122597
0.313816157294968
0.307538470925813
0.30149212300845
0.295674307045548
0.290072721448946
0.284657762939998
0.279405167868595
0.27428395249281
0.26927391170651
0.264353093672341
0.259511700481865
0.254740249514701
0.250041200275411
0.245415910894382
0.240872046390319
0.236413145995352
0.232047729136719
0.22777895876533
0.22360900182441
0.219539094384146
0.215566158126371
0.211692171703278
0.207920319895539
0.204257123696296
0.200704028477092
0.197259558653777
0.193917311236849
0.190672986111944
0.187524389509143
0.184474183360413
0.181525900942685
0.178684134420856
0.175951593987797
0.173330197608853
0.170818526134813
0.168413108828429
0.166108342689061
0.163896053442852
0.161767757588516
0.159715428978563
0.157733327340608
0.155817140203494
0.153965265366653
0.152178164000784
0.150458605394579
0.148809998843703
0.147235153218931
0.145735870526095
0.144313632099797
0.142967697309353
0.141695150126563
0.140491154459857
0.139349700612197
0.138265530732269
0.13723461219515
0.136254115439544
0.135326440524995
0.134455232829339
0.133645883243328
0.132927323418879
0.1323062731214
0.000332843456943037
0.00424001212798102
0.0115014765718692
0.0133996340785821
0.0152656116131312
0.0174546765655947
0.0196595922191287
0.0219441215161412
0.0243165032362238
0.0268243318651991
0.0294694430870414
0.0323202470537932
0.0353743800346123
0.0387116550358854
0.042325522082722
0.0463195017637666
0.0506992865147282
0.0556347675941592
0.0611397282891851
0.0673367238765298
0.0745496261675211
0.0827445680669928
0.0918670357126254
0.102590843991229
0.11776011253649
0.144692026245153
0.188852738758935
0.242715173032787
0.270320208545635
0.274424711409169
0.278511343225942
0.28243520051516
0.286045016345462
0.289185889110879
0.291700500771938
0.293432171280864
0.294310878771251
0.294581946962081
0.294667979648293
0.294792291856121
0.295060112497709
0.295525174372489
0.29620924718342
0.297115441578533
0.298235746204668
0.299556182380288
0.301060376021889
0.302732168057315
0.304557742942623
0.306526973354742
0.30863587857607
0.310888012087747
0.313298737918557
0.315897233214343
0.318744900810539
0.306000824832709
0.281656616710028
0.258990488304571
0.241634598170311
0.23021009799689
0.224224665815227
0.221614865735228
0.221561899424298
0.222607832619105
0.224656394329451
0.226724979314325
0.229192353352006
0.231278604561522
0.233567564758384
0.235263596205623
0.237076713151935
0.238248262622489
0.239697548274688
0.240683977551039
0.24219309224796
0.243318413212653
0.245110114130064
0.246809027328325
0.250102044275494
0.254827454572772
0.263567165455327
0.277541146563794
0.301928966391282
0.334816305699555
0.345399439249542
0.339166635635936
0.332627218915853
0.325979025581013
0.319380028240463
0.312928545395259
0.306685239195559
0.300670152524536
0.294880862435869
0.289304190325465
0.283912902164332
0.278681779608926
0.273581725979129
0.26859149737286
0.263690653515874
0.258868305968583
0.254116151780214
0.249435603773666
0.244828993327171
0.240303034603384
0.235862033235529
0.231513553393146
0.227261566613298
0.223108075063365
0.219053815902693
0.215096337166947
0.211237144231093
0.207479882660371
0.203830677258178
0.200291393126343
0.19686024342928
0.193531151884438
0.190299506824467
0.187163324057312
0.184125004747185
0.181188228927603
0.178357368113243
0.175635245739275
0.173023571498496
0.170521149701441
0.16812449356523
0.165827989099268
0.163623665089575
0.16150302288456
0.159458183443286
0.157483387356579
0.155574433620492
0.15372964135394
0.151949499692519
0.15023668308
0.148594568053431
0.147025859008779
0.145532355990183
0.14411546262691
0.142774532355208
0.141506679502407
0.140307099671701
0.139169942075153
0.138089998386078
0.137063236042927
0.136086914465331
0.135163380410952
0.134296217481702
0.133490670675808
0.132775354338277
0.132157025551529
0.000332677761340797
0.00423776995643124
0.0115194112270382
0.013420266777996
0.0152855880901477
0.017465443199114
0.0196669071509842
0.0219432234182683
0.0243165526724163
0.0268197811965748
0.0294729420787864
0.0323237755577707
0.0353913156392481
0.0387291857337722
0.0423604406307044
0.0463598967519358
0.0507705427681245
0.0557089974202506
0.0612358619949144
0.0674911163410093
0.0747175605438573
0.0829587602430297
0.0921974037902285
0.103026943887828
0.118376438499918
0.14532181634231
0.189385009741194
0.242516094284159
0.270204660869039
0.274282657552979
0.278333729437717
0.282212935553211
0.285768443689205
0.288844751116082
0.291283892951035
0.292929554078177
0.293724757680191
0.293940245479262
0.293994520456735
0.294097727015865
0.294350414873301
0.294803266324447
0.295476304164032
0.296371647481055
0.29748078375714
0.298789585307887
0.300281810608525
0.301941673769403
0.303755891127243
0.305715277654404
0.307816931199572
0.310066193688847
0.312480482931164
0.315092199020144
0.317972410874978
0.302628976786476
0.278174081053431
0.256077720760894
0.239397729231247
0.228541427799436
0.222811151061231
0.220413789659414
0.220364599220399
0.22146520577589
0.223418557239794
0.225492271673239
0.227823803278727
0.229895871334037
0.232024361854295
0.23370100304684
0.235343840066138
0.236503547668529
0.237781959571219
0.238765598996568
0.240103819913298
0.241250065641729
0.242902151995954
0.244707974373266
0.247984407193394
0.253061257376821
0.262121761106081
0.276949258396904
0.302201138851344
0.33596222323351
0.343914552207865
0.337746816317215
0.331271124594022
0.324685019085452
0.318142824817145
0.311743428724712
0.305545934898415
0.299572073773403
0.293820156729633
0.288276777992855
0.282916620128049
0.277714242366438
0.272642035087697
0.267678322381028
0.262803774089558
0.25800689969075
0.253280177606522
0.248624369242263
0.244042419039905
0.239540403649389
0.235123063880393
0.230797311115242
0.226567620759973
0.222435932061957
0.218402627473483
0.21446568734997
0.210626331145326
0.206888508974021
0.203258104078906
0.199737264786915
0.19632401913239
0.19301250402407
0.189797889985189
0.186678299211888
0.183655938794161
0.180734551069355
0.177918331503487
0.175210149347209
0.172611562480951
0.170121535779731
0.167736618278567
0.165451228040372
0.16325758962144
0.161147248257967
0.159112463872013
0.15714750765469
0.155248274436772
0.153413022657972
0.151642234183488
0.149938487094622
0.148305084524788
0.146744624250669
0.145258877084301
0.143849185492235
0.142514981227067
0.141253442742963
0.140059834796819
0.138928469988944
0.137854226026207
0.13683309209922
0.135862401785135
0.134944449153433
0.134082738727284
0.133282316689668
0.132571387369023
0.131956762018499
0.00033230399505134
0.00423421222511688
0.0115132818040662
0.0134339433330115
0.0153026991153601
0.0174782685557621
0.0196742267198802
0.0219425135342946
0.0243135243913584
0.0268150888655369
0.0294745324643989
0.0323300409377504
0.035408891071123
0.0387537941178092
0.0424010893583316
0.0464139598216066
0.050850534498331
0.055805046731367
0.0613636498911152
0.0676711313768836
0.0749305951693521
0.0832309389095195
0.0925849993802905
0.103560769093116
0.11910968014646
0.146099965060651
0.189891118717062
0.242164356999263
0.270047018502709
0.274091329269355
0.278097213167822
0.281919608244145
0.285406058303441
0.288400294875296
0.290743598404163
0.292280562491191
0.292972497122596
0.293121345969748
0.293137231217168
0.293214893262405
0.2934492369282
0.293887246179868
0.294546817306733
0.295428874054752
0.296524305251088
0.297818827623887
0.2992963957653
0.30094172427933
0.302742298485293
0.304690110395721
0.306783767540544
0.309030825883509
0.311451438197769
0.314081660365297
0.31700943135588
0.298071019714021
0.273616194921355
0.252327495381211
0.236507043364388
0.226324538209321
0.220965162855301
0.218791309889627
0.21877590829225
0.219901492899037
0.221768683208246
0.223801755155026
0.225998435558107
0.228002222729718
0.22997073401741
0.231571412254534
0.233049768639978
0.234139983190551
0.235251599377344
0.236172803302175
0.237349475128241
0.238461916392144
0.240003037730943
0.241887592539298
0.245236472837813
0.250716590407275
0.26030119999416
0.276207889624662
0.302643800916197
0.337396405930316
0.342019019271397
0.335932106653852
0.32953661886508
0.323028307285729
0.31655793996163
0.310224114325171
0.304084888421383
0.29816327476377
0.292458579275547
0.286957692635659
0.281637003352589
0.276471385435918
0.271434521730427
0.266504735509419
0.261663583939727
0.25689930576418
0.252204914684694
0.247580775795675
0.243030215479303
0.238558864961007
0.234171675244247
0.229875094928513
0.225673901974555
0.221570028142546
0.217563608419252
0.213652935557969
0.209839069057562
0.206126164994248
0.202519964213326
0.199022808589797
0.195632621487637
0.192343679568001
0.18915099190259
0.186052714087298
0.183050895675633
0.180149281035431
0.177351911509782
0.174661652562141
0.172079945636745
0.169605874918715
0.167236065243352
0.1649650098285
0.162785138062354
0.160688091609071
0.158666272818021
0.156714024930951
0.154827333362998
0.153004403801089
0.151245680611807
0.14955363518729
0.147931458902329
0.146381636874394
0.144905885271495
0.143505496083242
0.142179973205012
0.140926589609156
0.139740718151275
0.138616850250206
0.137549982709316
0.136536147804782
0.135572745439254
0.134662010331813
0.133807347513287
0.133013556762789
0.132308329553099
0.131698568675015
0.000331692900842601
0.00422919080167977
0.0115027621144187
0.0134420521135038
0.0153148646268077
0.0174893515862476
0.0196796996668564
0.0219401402735148
0.0243078155837491
0.0268099579986359
0.0294760601980765
0.0323394132930301
0.035429986196002
0.0387865686644377
0.0424514116561059
0.0464834495119711
0.0509470477798783
0.0559289547230391
0.0615285349391238
0.0678912561443831
0.0752029790105895
0.083580452420235
0.0930665085381699
0.104236526108142
0.120027687728409
0.147082372304487
0.190463519201189
0.241698048437385
0.269839233359742
0.273841574748244
0.277791222047834
0.281542956056406
0.28494360149499
0.287835976464897
0.290060502603781
0.291463721303289
0.292032208553198
0.292104171534656
0.292075233498439
0.292123026306794
0.292335854943016
0.292756393430748
0.293400041875624
0.294266338133037
0.295345489256701
0.296623071373732
0.298083331065249
0.299711655648637
0.301496571852777
0.303431568832677
0.30551723661113
0.307763890600418
0.310195098481417
0.312850835148113
0.313363411015081
0.292164959294132
0.26797738972211
0.247717414614956
0.232939109484245
0.223551813498632
0.218647077575477
0.216715638980957
0.216753335887791
0.217882841307852
0.219660724092238
0.22161577099294
0.223664699735904
0.225554700184988
0.227348212702535
0.228826677033943
0.23012859916674
0.231108544851524
0.232044349175001
0.232857252725582
0.233866293105781
0.234909777421293
0.236359382289206
0.23832991089513
0.241849037309469
0.247845612408589
0.25819039334943
0.275505347797526
0.303464620836996
0.339360049622606
0.339667565558255
0.333678147463469
0.327380536839323
0.320967048751405
0.314584705459445
0.308331145932683
0.30226367273846
0.296406360486036
0.290759722923451
0.285311384069426
0.280039383643414
0.274919330436209
0.269926136817587
0.265038449040869
0.26023860191404
0.255514797607776
0.250860433815623
0.24627564619768
0.241763992189519
0.237330772707462
0.232980988924861
0.228720742458621
0.224554980298934
0.220485653590417
0.216512730838664
0.212634746135165
0.208852687873049
0.205170855186544
0.201594910129786
0.198127326393125
0.19476597415851
0.19150522161845
0.18833994896985
0.185268289949148
0.18229215374371
0.179415241084499
0.176641446590126
0.173973592963259
0.171413025745915
0.168958922243849
0.166608016067739
0.164354919588048
0.16219228855398
0.160111911112865
0.158106343705105
0.156170038010842
0.154299072258629
0.15249160032719
0.150748001093636
0.149070622372293
0.14746250528643
0.145926014788859
0.14446278678408
0.143074068711194
0.141759438181954
0.140516292256001
0.139340152033457
0.138225712122086
0.137168120579115
0.136163473639621
0.135209234953394
0.134307567615562
0.133461753130252
0.132676304708273
0.131978289932295
0.131374769525285
0.000330812816454937
0.00422249320566411
0.0114884868012634
0.0134466217374696
0.0153222284559068
0.0174956982086899
0.019679997543002
0.0219334014050865
0.0242989336710195
0.0268042297363302
0.0294783164211978
0.032351596609834
0.0354550383302988
0.0388267476950236
0.0425118965780973
0.0465683005506365
0.0510634345721884
0.0560828998677264
0.0617328607937343
0.0681593270962034
0.0755428757476952
0.0840198942841022
0.0936661894267057
0.105082211166053
0.121161562265141
0.148277213269571
0.191109760500691
0.241097519907001
0.269571903920988
0.273522650780248
0.277403345349633
0.281068594815909
0.284364396413988
0.287132520986275
0.289212447957473
0.290454545707855
0.290879865256484
0.290865976997637
0.290786191586256
0.290800056159835
0.290988336746908
0.291388847814321
0.292014147253455
0.292862220700646
0.293922536247888
0.295180573967209
0.296621010051819
0.29823013241885
0.299997835676854
0.301919510885674
0.303998264130892
0.306247817509475
0.308695883835498
0.311388119674406
0.307363623638316
0.284767113248187
0.261209256631759
0.242217658191167
0.228657155019327
0.220195002219025
0.215804935897081
0.214131512076415
0.214231707764218
0.215344901530561
0.217020712947869
0.218860797331962
0.220738682682744
0.222469696135294
0.224062385007645
0.225372837851831
0.226475174267883
0.227303404482058
0.228052465872613
0.228717891045626
0.229547023401026
0.230496879566726
0.231881074400948
0.233975404634474
0.237795960550209
0.244471790341002
0.255895375720806
0.275030771846915
0.304832595468155
0.341475119403221
0.336812745055475
0.330938472673388
0.324757499065206
0.318457033394983
0.312179987686061
0.306022492925491
0.30004124185946
0.294261264879136
0.288684473976754
0.283299603191851
0.278086390311733
0.273021524814237
0.268081171839246
0.263244556189368
0.258494754208364
0.253820103428798
0.249214294563299
0.24467734275515
0.24021293684444
0.235826111707727
0.231521798472104
0.227305817335491
0.223183194851182
0.219155911264384
0.215223830944693
0.211385692167797
0.207642477783107
0.203998589528943
0.200459649969506
0.197028219739767
0.193702147967979
0.190475863133275
0.187344133411206
0.184305025673216
0.181360312494681
0.178513614432711
0.175768676936312
0.173128247456777
0.170593585483339
0.168163945319636
0.165836198834047
0.163605123162391
0.161463632117964
0.159403710203447
0.157418085734908
0.155501352058514
0.153649688238934
0.151861192393584
0.150136150312677
0.148476763829804
0.146885883879634
0.145365748153941
0.143917884945098
0.142543498905706
0.141242249322244
0.140011687905126
0.13884752565814
0.137744691894832
0.13669851871629
0.135705187246043
0.134762226039927
0.133871709443334
0.133036767966274
0.132261597202522
0.131572525365035
0.130976874100428
0.00032963129475991
0.00421412168327281
0.0114699784312459
0.0134521177829364
0.0153272802025111
0.0174953129471855
0.0196712936812785
0.0219194832917291
0.024286519280112
0.0267984789851754
0.0294821952370226
0.0323666409315181
0.0354841702432755
0.0388739753753967
0.0425830850666854
0.0466694472121428
0.0512026267052671
0.0562694763852414
0.0619803172094218
0.068482893274775
0.0759590028798687
0.0845627305377117
0.094406893678775
0.106122575793811
0.122527680061153
0.149669976671314
0.191798935113631
0.240320884450424
0.269234021201238
0.27312193396959
0.276918994168391
0.28047963204693
0.283648915592068
0.286267454282619
0.288173749669417
0.289225292490768
0.289489432841307
0.289382402047203
0.289246388888662
0.289222693180177
0.289383636899774
0.289761709191393
0.290366324128725
0.291193782080729
0.29223279337836
0.29346883254185
0.294887195888419
0.296475363992332
0.298224999753377
0.30013389168442
0.302208264675973
0.304465988867417
0.306939788786386
0.309685580445643
0.299499803766346
0.275751355707907
0.253264629363398
0.2358098307646
0.223630111742092
0.216187735819742
0.212373645492084
0.210968028043482
0.211129883050941
0.212203277426015
0.213754945856982
0.215440120413214
0.217114222005198
0.218638495584368
0.2199954916468
0.221090649182682
0.22196236638765
0.222594775440344
0.223136914238062
0.223630290935407
0.224266982436262
0.225113235316404
0.226478206402023
0.228778421325328
0.233082034239375
0.240673373660887
0.253605143418524
0.275044374529434
0.30688904720269
0.338635645630703
0.333404876377127
0.327665045598453
0.321620335296572
0.315452025668514
0.309298454961032
0.303253768482344
0.29737409805684
0.291685390060442
0.286191129303099
0.280881493132324
0.275738028978542
0.270738804141251
0.265861314863242
0.261085575207847
0.256395414314096
0.251779436431478
0.24723157221688
0.242751785895274
0.238343830846368
0.234012505810782
0.229762575106242
0.225599607847761
0.221528649910454
0.217551709677101
0.213668596474014
0.209878240500518
0.20618167004651
0.202583362585161
0.199088922816487
0.195700963108791
0.192417330355127
0.189232494278068
0.186141117509167
0.183141160259161
0.180234252215773
0.177423902952619
0.174713699531923
0.172106285629696
0.169602836730608
0.167202674578009
0.164902837382335
0.162698314923792
0.160582319564229
0.158547083510546
0.156585529322941
0.154692423146971
0.152864057663442
0.151098467891878
0.14939581799577
0.147758136229848
0.146188041511525
0.144687639161188
0.143258319726043
0.14190124257654
0.140616162355952
0.139400818209153
0.138251154582428
0.137162372912191
0.136130023437849
0.135150393700184
0.134221081121122
0.133344049330932
0.132522247875203
0.131759532569779
0.131081379426146
0.13049551331872
0.000328106162982504
0.00420413077088886
0.0114466180908936
0.0134633519234678
0.0153326240827258
0.0174858240658984
0.0196498090986481
0.021896458141037
0.0242709902328443
0.0267937626501924
0.0294884516270862
0.0323845963932944
0.0355174525960923
0.0389284503837787
0.0426660604656479
0.0467887646763801
0.051367900359153
0.0564925403637206
0.0622765269799672
0.0688707180190373
0.0764622310907922
0.0852251477811892
0.0953140306236918
0.107386019436816
0.124139897126506
0.151233579830596
0.192477837295336
0.23932579255342
0.268812635248295
0.272624567529033
0.276320990569016
0.279756197401913
0.282774260058021
0.285214547435719
0.286914659677817
0.287744837905215
0.287833104554969
0.287627551916088
0.287430833982781
0.287366534297795
0.287497708384526
0.287851149942772
0.288432908722084
0.289237499686494
0.290252915552707
0.29146477507317
0.292859254430485
0.294425397994534
0.296157129859127
0.298055230751079
0.300129711260324
0.302403423354179
0.304915019225853
0.307742489967768
0.289372788052502
0.265065277419864
0.244149086427543
0.22850181630706
0.217860645212289
0.211487284134163
0.208280048568231
0.207140627663191
0.207353608180228
0.20835781077504
0.209753487688459
0.211238656896033
0.212667062955329
0.213933040757182
0.215011627986955
0.215842483872768
0.216447061102537
0.216841004505665
0.217148065405794
0.217447634141453
0.217898647704849
0.21865741657587
0.22008927274992
0.222744883709571
0.227791290486019
0.236636740884411
0.25163587837568
0.275892034076016
0.309831305823975
0.334472307254399
0.329394496069101
0.323808902440328
0.317920563019017
0.311904155460962
0.30589289288218
0.299978493707225
0.294216507597809
0.288633791173798
0.28323555906942
0.278013728949909
0.272951807552654
0.268029502331238
0.263225752192
0.25852153950141
0.25390148674116
0.24935456890288
0.244874926446499
0.240462514282951
0.236121104256709
0.231855265174917
0.227669510325325
0.223569161993004
0.219559245187143
0.215641788871619
0.211816586569833
0.20808276753297
0.204441447784397
0.200897160907883
0.197455501467138
0.194119103075448
0.19088581976541
0.187750153065137
0.184706660077224
0.181753156059344
0.178891113264142
0.176123903012907
0.173454940245739
0.170886738891578
0.168420386710832
0.166055267449786
0.163788613520443
0.161615677935944
0.159530019966703
0.157524173738441
0.155591281799706
0.153726312473415
0.151925688961054
0.150187373636889
0.148511378539993
0.14689952536994
0.145354157791366
0.143877246646199
0.142470011679055
0.141133559126384
0.139867758241316
0.138670571705181
0.13753822297688
0.136466228019784
0.135450390766551
0.134487127603858
0.133574111076422
0.132713166944441
0.131907033146522
0.131159208381113
0.130494216831772
0.129920360229126
0.000326176544469169
0.00419163580600848
0.0114171256174249
0.0134853224431926
0.0153362557852819
0.0174616772915283
0.0196126922173644
0.0218649466788638
0.0242541939038159
0.0267911657890536
0.0294972097423565
0.0324051995060296
0.0355550039858572
0.0389908660921427
0.0427623857709297
0.0469286927452828
0.0515629615253332
0.0567571381398186
0.0626288339963904
0.0693331950977798
0.0770658221864264
0.0860258011159294
0.0964152566726501
0.108905203044084
0.126013970270456
0.152929796694385
0.193069697982182
0.238086541716821
0.268292464103554
0.272013045694145
0.275589074500194
0.278874874323022
0.281713534013283
0.28394315900815
0.285400815838532
0.285978825524062
0.285881604376619
0.285574117308246
0.285313398921343
0.285206194705254
0.285305638133627
0.28563256147566
0.286189535364221
0.286969241785135
0.287959072127964
0.289145016851987
0.290514480215932
0.292058538180878
0.293773978869965
0.295665272950325
0.297746911928205
0.30004755671871
0.302612595018742
0.300156103070244
0.276684020003204
0.252833041502454
0.233938314031717
0.220330259372856
0.21136386138327
0.20607440186403
0.203449806855459
0.202555008197153
0.202794351007194
0.203691514826998
0.204888595157478
0.206121502192923
0.207253219313248
0.208204734198538
0.208955743105058
0.209472058662295
0.209770313824954
0.209887176761508
0.209934892555607
0.210020330043637
0.210321951311338
0.211061534563652
0.212718246557398
0.215980156571991
0.222136894029997
0.232726125725241
0.250490294285582
0.278060045911795
0.313974657081493
0.329640052629
0.324732771526954
0.319320693870805
0.313608857566738
0.307764321821822
0.301914545846442
0.296148394526613
0.290520757291609
0.285059404306029
0.279771413711219
0.274650704781902
0.26968291027645
0.264849611774155
0.260131319492546
0.255510138214165
0.250971540391837
0.246504956437032
0.242104719065589
0.237770794075758
0.233506938515212
0.229317480951882
0.225206604489595
0.221179368077008
0.217240750003368
0.213392788768317
0.209635293467302
0.205967615479264
0.202390996379868
0.198910008610345
0.195530232336012
0.192254293057697
0.189080054319574
0.186002048541645
0.18301472408874
0.180115711547765
0.177306303488855
0.174589707841247
0.171969151033563
0.169446993271968
0.167024226630621