/*--------------------------------*- C++ -*----------------------------------*\
  =========                 |
  \\      /  F ield         | OpenFOAM: The Open Source CFD Toolbox
   \\    /   O peration     | Website:  https://openfoam.org
    \\  /    A nd           | Version:  12
     \\/     M anipulation  |
\*---------------------------------------------------------------------------*/
FoamFile
{
    format      ascii;
    class       volScalarField;
    location    "0.028";
    object      omega;
}
// * * * * * * * * * * * * * * * * * * * * * * * * * * * * * * * * * * * * * //

dimensions      [0 0 -1 0 0 0 0];

internalField   nonuniform List<scalar> 
54000
(
861635.169064941
159017.091898677
75450.3561234886
47925.4899838057
34599.6342002968
27499.3577267671
23420.600100325
20922.4972536929
19278.4617032129
18149.1155209685
17325.287444974
16716.1060918341
16244.563027127
15885.0530261842
15601.4476897912
15387.2733600122
15222.1439709516
15105.4189747392
15024.5483703517
14977.3854265678
14964.8485560494
14981.5619736638
15028.0944767017
15107.1643370582
15215.8166293489
15354.5092074666
15516.8152426653
15702.0535563109
15918.7481138167
16183.2848308421
16508.015127328
16897.3182144194
17357.5708589834
17897.4585418426
18528.1499338916
19263.638228332
20115.0206035599
21071.371100747
22104.4796094492
23199.5703275409
24350.8652095712
25555.3877837459
26811.8446554852
28119.7773313825
29479.1412310031
30889.9843225887
32352.2123503824
33865.3054611818
35428.3436822313
37039.2865767624
38695.5024139053
40392.2912433443
42123.8423652194
43881.1645528742
45651.4946818071
47423.078473107
49211.8496284831
51052.8390391281
52955.601560411
54917.4240280089
56951.7262829726
59033.2142630784
61151.4349676449
63287.2938127279
65451.664711694
67616.6316662665
69799.0361810555
71970.8135650759
74161.7556667227
76340.6942733781
78531.7561209458
80686.6030697559
82835.6751776743
84928.9172075976
86999.602055037
88996.2758901037
90957.4471133868
92830.635100795
94653.0938697243
96358.6742381036
97978.807539622
99438.7223689654
100755.907022078
101857.26486286
102749.202089341
103544.287349544
104306.109009182
105029.955758813
105714.093406137
106342.64945592
106910.718620658
107404.278610402
107816.630965333
108146.238435101
108385.498016455
108537.081299057
108597.701271973
108573.276089113
108463.903958642
108277.772105944
108017.310928005
107691.675626916
107304.147312815
106863.026170498
106370.618521793
105833.376611644
105251.215693671
104625.705851097
103958.753965426
103248.097368454
102494.798514144
101697.258798103
100857.309779311
99974.971918535
99053.8960589939
98096.8189343056
97109.6476879635
96097.278645618
95066.4987534442
94022.2051042422
92969.5802916874
91911.0945119372
90848.7355973334
89781.3491933241
88707.2812124063
87624.2468929392
86529.0908963427
85420.0230170845
84295.9709600128
83158.2960238464
82009.7552524372
80855.2744978387
79700.3871947565
78551.2156504026
77412.654355433
76288.0075058193
75177.8730187256
74080.7698617834
72992.6630857581
71908.6851334491
70824.0650517255
69735.0415107676
68640.3132107857
67541.4364531728
66441.9029984448
65347.5214602372
64264.7223475351
63198.791533837
62177.3239207939
61241.3109127837
861660.221381223
158966.844727303
75460.6675877956
47955.3334343328
34609.8273562865
27499.5107788844
23424.7478420677
20922.2173626435
19281.8609781678
18148.6299543469
17327.6208824526
16715.2179034974
16245.8393461823
15883.7663721498
15601.8028866111
15385.6037831202
15221.5518659186
15102.9732225086
15022.3061034467
14976.0776534748
14962.5595653755
14979.3996440367
15026.7464592238
15105.596576634
15214.9432052793
15353.6324878688
15517.2948938572
15703.6285357549
15920.8566298585
16186.3314750032
16512.2160253422
16902.8747876921
17364.7411749538
17906.556631791
18539.5767312574
19277.881392119
20132.3445830698
21091.3462785923
22126.6274146603
23223.77040043
24377.0953170598
25583.6903702731
26842.2971512695
28152.4826219839
29514.2161282515
30927.5513420935
32392.3873240323
33908.212981378
35474.0117168893
37087.8122081204
38746.7671774649
40446.279726911
42180.1694134541
43939.6069159879
45711.2027564647
47483.9309792986
49278.0286807678
51124.6392482557
53033.2994052456
55005.4456496203
57047.637979536
59140.2209479809
61266.4220511059
63415.1256388759
65587.9444163482
67767.3997183419
69958.1157051625
72142.9784961666
74332.8869872256
76514.5769203864
78699.9477251586
80858.3177827217
83001.1797183099
85098.0077355414
87162.1509706386
89162.6429836539
91117.5673842324
92995.7881026139
94812.4283251233
96523.6716209789
98137.6240682915
99601.2287887038
100910.976102744
102008.688291434
102891.117476682
103684.479028935
104443.414308415
105165.762405152
105847.106608673
106473.935409048
107038.956276955
107530.104852611
107940.308521971
108266.661928345
108503.406055605
108651.531337816
108709.392405205
108681.36800284
108569.065978879
108379.279428132
108115.80210952
107786.553287003
107396.014719518
106951.408766071
106456.080872052
105915.4459011
105330.35301782
104702.125779219
104032.136383155
103318.845633905
102562.672890854
101762.614268665
100919.955096211
100035.22335725
99111.6085313961
98152.2675462548
97162.7316032765
96148.2396915939
95115.2830023593
94069.0292356994
93014.4236879424
91954.1520606856
90889.9644278723
89820.942749193
88745.3274162354
87660.7391727665
86564.1616311568
85453.6738999214
84328.3111064592
83189.3239361069
82039.5622495511
80883.8650748516
79727.8423676551
78577.5501945761
77437.9417310036
76312.2662959887
75201.1720828249
74103.1163357531
73014.1422310084
71929.3408769714
70843.9063008828
69754.1474577487
68658.719999624
67559.1461360214
66458.974430525
65363.9726995119
64280.5645210563
63214.0268614304
62191.873011379
61255.3779273796
861627.007788096
158930.975004839
75444.1940023155
47957.5712550966
34612.7730139306
27498.7096731021
23423.7880213382
20919.8902719503
19280.0400585421
18145.7611587711
17325.1815768658
16711.8920425618
16242.869085905
15880.0792568301
15598.3974058683
15381.5746460444
15217.6272416409
15098.4639592653
15017.9055404645
14972.0189133285
14958.3308833406
14975.4375735256
15023.3601490876
15102.5916858502
15212.7479757546
15352.2983603673
15517.4316102418
15705.1996550583
15923.7108337629
16190.7105418939
16518.3868253111
16911.1412551574
17375.4970969362
17920.2908864121
18556.9111204218
19299.5700733797
20158.7634720372
21121.8086632179
22160.4160133414
23260.7123470731
24417.1626680291
25626.9540710412
26888.8855279828
28202.5620717435
29567.9751168537
30985.1866190206
32454.086818147
33974.1532293564
35544.2971055749
37162.5293268971
38825.8343974848
40529.561915153
42267.231893084
44029.952128368
45803.7707856579
47578.927171158
49380.2271075637
51235.8696656394
53155.3081566608
55141.3482562755
57197.1745949266
59304.764316713
61445.0142617084
63610.3989276001
65798.0337757795
67995.5118104113
70201.4730263251
72403.3098695733
74602.6281924567
76784.8944862998
78965.8024740702
81124.3678286174
83262.1425198932
85359.1776144662
87417.8845964552
89418.8388808511
91369.0782646745
93249.5105846257
95062.3169086116
96776.3978597828
98385.600272598
99849.6193185406
101151.060757796
102239.860136116
103112.508386838
103902.805289175
104658.413680946
105378.182306563
106056.124404041
106679.978140433
107241.076390567
107728.538113438
108135.035123117
108456.872360482
108689.353869555
108832.560020955
108885.782508989
108852.563313384
108735.379563035
108540.267036674
108271.809314278
107937.254570431
107541.782159085
107092.021529381
106591.922643551
106046.284008699
105456.559387631
104823.899160821
104149.341322943
103431.771101413
102671.242185483
101867.092359092
101020.29841582
100131.68001758
99204.1637101312
98241.1513592721
97247.9629020709
96230.0398750616
95193.7067195949
94144.2903865279
93086.5973918418
92023.4392329654
90956.409734015
89884.7497003018
88806.622003023
87719.5787180963
86620.6844127199
85507.9391644296
84380.4370993637
83239.3610481304
82087.6140676367
80929.9831631014
79772.1231320664
78620.0492802346
77478.7477100849
76351.4327573823
75238.7820937591
74139.2110816701
73048.8183538337
71962.6681812302
70875.9260915386
69784.9528714309
68688.373884862
67587.6795052368
66486.4582652434
65390.444790809
64306.055860564
63238.5317018598
62215.2845052436
61278.0037847094
861566.571668194
158882.581821148
75413.6286033682
47946.9149846237
34610.063363201
27495.4624845492
23419.765064201
20915.1299311018
19275.0453129649
18140.3094158992
17319.5920243099
16705.9442949177
16236.8415353642
15873.7759722093
15592.0339128007
15374.9466260492
15210.9019709314
15091.5641543935
15011.095288298
14965.4130116834
14951.8884855804
14969.3988328512
15017.9435915228
15097.9186942767
15209.1911206643
15350.1969639097
15517.1903640815
15706.9243055327
15927.406456859
16196.5690391821
16526.7541475006
16922.4425498118
17390.2783338215
17939.2402211616
18580.8998789249
19329.6481677962
20195.3987658235
21163.9951468524
22207.2024991775
23311.8757776471
24472.6737711678
25686.9191376754
26953.4914602965
28272.047520754
29642.6088669378
31065.2478963944
32539.8430317125
34065.844742534
35642.0901309471
37266.5152809987
38935.9294727316
40645.520289517
42388.4919938683
44155.7455288367
45932.697716356
47711.8256814868
49523.1386379389
51391.8698043298
53327.1556666267
55331.826018196
57407.1503194943
59534.4677397341
61694.4282954904
63880.9004419316
66088.7089069951
68307.9854320659
70534.3751664237
72757.607722709
74974.6922719105
77168.0572425226
79343.4406654797
81499.5993355969
83632.2271677359
85726.8298068981
87780.0539460218
89778.8957662154
91725.1020088906
93605.8108416302
95415.8773795914
97130.5747775141
98735.6021683397
100196.97462295
101488.159926042
102563.133976755
103423.417955168
104209.435811313
104961.095417311
105677.297352461
106351.030706674
106970.679565392
107526.762630112
108009.110292275
108410.262667142
108726.04573298
108952.409974642
109088.943894432
109135.511084468
109095.200679285
108971.027289495
108768.617771187
108493.048114893
108151.204130359
107748.701288006
107291.839915053
106784.943088608
106232.437990021
105636.165575283
104997.177123886
104316.279241737
103592.614903163
102826.019271076
102016.037311762
101163.465748646
100269.301284658
99336.3150205426
98368.0622672555
97369.7420849924
96346.9253829504
95305.8404660644
94251.9144775901
93189.8676516508
92122.5871264068
91051.5581053558
89976.1230452235
88894.3926394602
87803.8610991043
86701.6405408924
85585.6784348165
84455.1016785071
83311.04778282
82156.4515142
80996.066389701
79835.5746900254
78680.9637665575
77537.2378937127
76407.5857314499
75292.7022542753
74190.9727254756
73098.533977543
72010.4358264081
70921.8209520869
69829.087038514
68730.8397819262
67628.5393638926
66525.7996586187
65428.3275861705
64342.5322755515
63273.5912846372
62248.7913750031
61310.3774751313
861470.013231409
158817.100945076
75370.8142946644
47926.8187905027
34601.8669313015
27488.852142674
23412.7186199738
20907.555487906
19267.0611564303
18131.9691035594
17310.9646208171
16697.0642056672
16227.7702020979
15864.5250786613
15582.6359314941
15365.3868307861
15201.2348991573
15081.8732462674
15001.5164609948
14956.0579003974
14942.8882420504
14960.9577800267
15010.2890549862
15091.3275168019
15204.1031393053
15347.1134660432
15516.5136865871
15708.8716538444
15932.0498844431
16204.0903145236
16537.6006526753
16937.1772467731
17409.6222760758
17964.1082542177
18612.448734866
19369.2531332809
20243.5769688768
21219.3450383336
22268.557003166
23378.9684323553
24545.481168877
25765.591585038
27038.2836080698
28363.2801907774
29740.6408651549
31170.4496714932
32652.5681194409
34186.403144538
35770.7005831925
37403.2721620984
39080.713670871
40797.9533542799
42547.8152887503
44320.8649469308
46101.7723735425
47887.0221408759
49712.0462434162
51598.7082900593
53555.4798878015
55584.4412258614
57685.4965725129
59837.8073397939
62023.0268440965
64235.2324009697
66467.9781056185
68712.650599988
70963.3393960764
73211.1839749073
75451.0911381742
77668.9419008016
79848.8663728833
82000.3492112727
84126.9021639235
86216.796955539
88263.6177436356
90258.3083070083
92200.5452561805
94080.3872414693
95888.0672857509
97601.7642358509
99202.0945321784
100657.737700865
101935.237757472
102990.419595991
103835.4342919
104616.052043912
105363.036533656
106074.707073616
106743.275998718
107357.436034455
107907.205030401
108382.846261838
108776.863281773
109084.786254259
109302.991340116
109430.810623044
109468.492215352
109418.892043441
109285.391927912
109073.409931409
108788.361002542
108436.945975194
108025.080372712
107558.885685988
107042.932391512
106481.422801222
105876.44721407
105229.008386292
104539.741840202
103807.951346019
103033.333487074
102215.566142378
101355.338918387
100453.762820028
99513.5148451896
98538.2552490307
97533.1152441876
96503.7563029482
95456.351814193
94396.3963762049
93328.5530632819
92255.7541466541
91179.4044080021
90098.9070493407
89012.3371128988
87917.1369188136
86810.445190551
85690.1707207438
84555.4577773218
83407.4110253262
82248.9846521945
81084.909126614
79920.8839674464
78762.8749905878
77615.8946736968
76483.1100702645
75365.2250880195
74260.6018501507
73165.4031579638
72074.6732063505
70983.5373948656
69888.4197741007
68787.9136814849
67683.4504947422
66578.6579169962
65479.2172547335
64391.5288285683
63320.6831582055
62293.8135442178
61353.8673435759
861333.661591118
158729.299139192
75315.9738278354
47898.379129421
34588.0159759843
27478.2146669927
23402.2520186039
20896.7394139224
19255.8130297182
18120.3482343706
17299.0034222042
16684.8437225984
16215.3225371674
15851.9023713832
15569.849373865
15352.4771697795
15188.2554000177
15068.9419788154
14988.7473902277
14943.5945368552
14930.936740237
14949.7473676478
15000.0956139788
15082.5353937092
15197.2613517212
15342.8611775314
15515.3324255871
15711.08355387
15937.7643536494
16213.4988381589
16551.268484697
16955.8236497303
17434.169931519
17995.7314007264
18652.6317018013
19419.7231079036
20304.8261311043
21289.4911069699
22346.2533151074
23463.915234772
24637.6715634117
25865.2302725329
27145.7040100149
28478.8964459318
29864.9122972767
31303.8469339744
32795.5364615291
34339.3236729134
35933.8346443766
37576.7030792341
39264.2501878784
40991.0419039
42749.4241132719
44529.4415982478
46314.8995224828
48109.7216396904
49953.191042207
51863.6221009736
53848.3817808836
55908.2459248137
58041.7935215133
60224.9079871002
62441.0967372271
64683.971974106
66946.2759306743
69219.9403184012
71498.1987095021
73773.0553184786
76038.4591269021
78283.096535435
80489.2276767289
82644.8222975117
84763.7307419959
86846.6075383806
88885.5342407906
90874.2590415927
92812.4712468731
94690.8059660172
96496.0557815929
98207.2508228002
99801.4434111654
101247.650720098
102506.416396122
103534.241946046
104361.600522925
105135.804186185
105877.33133497
106583.486858776
107245.808236857
107853.090715955
108395.039645739
108862.188275573
109247.071545661
109545.050739523
109752.806669838
109869.564468437
109895.85726246
109834.449459757
109688.99970534
109464.846760869
109167.662202798
108804.076494582
108380.231001925
107902.16381818
107374.619486906
106801.669558624
106185.56457011
105527.288490509
104827.346742991
104085.142265643
103300.280099731
102472.52609479
101602.508879059
100691.416724873
99741.871479147
98757.6113453356
97743.7348579583
96705.972393081
95650.4693738807
94582.7679589754
93507.4914182615
92427.5961540337
91344.423471975
90257.4074019565
89164.5960953505
88063.3842029796
86950.9225719108
85825.0893079988
84685.0358969559
83531.8417314746
82368.4726765857
81199.6426393786
80031.0615028052
78868.6766344221
77717.5005641127
76580.680031903
75458.9210676402
74350.5665752701
73251.7967933181
72157.6564318064
71063.259163229
69965.048629606
68861.6106344313
67754.3487226489
66646.8955087077
65544.9058947269
64454.769513414
63381.4679915138
62351.9497856638
61410.0118838019
861143.915956696
158614.226518875
75247.926177461
47861.5873021989
34568.2710849686
27463.0351485085
23387.8872949987
20882.2285512882
19240.8942267232
18105.0174741549
17283.2924481822
16668.8350951073
16199.060163099
15835.4457516728
15553.2281100938
15335.7546337576
15171.5054319247
15052.2916570912
14972.3295542152
14927.5946267115
14915.6094180444
14935.3731207927
14987.0186053992
15071.2386080532
15188.4221339482
15337.2633105832
15513.5776942897
15713.6066962212
15944.7056721647
16225.0715076799
16568.1724619919
16978.9563988879
17464.6864293985
18035.1043868445
18702.7227687339
19482.6290156828
20380.8946294325
21376.2772566651
22442.2880008667
23568.878355484
24751.5872379931
25988.3705058543
27278.49424538
28621.8567420056
30018.6140680369
31468.8697191166
32972.4211144847
34528.5199056675
36135.632066641
37791.1489139016
39491.0350568313
41229.3775867029
42997.9232135747
44785.8020279791
46576.6869276516
48386.3285159694
50254.1732767376
52195.496972023
54215.8966241457
56314.3857903217
58487.8176617983
60708.2215512194
62961.5178423871
65240.4737950575
67537.2072458086
69843.7774884746
72152.9098506744
74457.1020641556
76749.8724110387
79021.9693106506
81259.5007851483
83442.6648460397
85562.641373316
87635.8729633952
89665.0338853291
91646.104414341
93580.4977382456
95457.0923701155
97259.5933120846
98966.5144639229
100552.140029144
101984.014025402
103216.864293564
104207.393186944
105016.544213574
105783.472557109
106518.731343871
107218.346071487
107873.204714662
108472.075101504
109004.470405144
109461.106286368
109834.600619538
110120.244101625
110314.960262001
110417.9715545
110430.047484482
110353.960790471
110193.602695049
109954.323809981
109642.01100556
109263.304651252
108824.533342809
108331.716580777
107789.729712854
107202.576139666
106572.608748702
105900.80776108
105187.577952225
104432.380535203
103634.757325804
102794.533897762
101912.309235807
100989.326768008
100028.179604545
99032.6695066859
98007.8877637956
96959.6219708167
95894.0084810512
94816.6243846153
93732.0634530138
92643.2904679224
91551.5927034285
90456.4124355507
89355.7740467156
88247.0275569491
87127.3254326276
85994.5198714141
84847.7624644535
83688.1121311791
82518.5412758425
81343.7514272094
80169.4577696
79001.5901105983
77845.1534718189
76703.2737260461
75576.6528370092
74463.6162774554
73360.3557416672
72261.9210037957
71163.4195754923
70061.3108225942
68954.1763371314
67843.3922582915
66732.5890213595
65627.3921754282
64534.1774110875
63457.7998269438
62424.9883528406
61480.5281279255
860880.89696092
158465.410664098
75164.2727401059
47815.7590916281
34542.2707849459
27442.8274237346
23369.1212381364
20863.5376751711
19221.8319349274
18085.5026982381
17263.3529055935
16648.5498243705
16178.4896248725
15814.6562073494
15532.2728268637
15314.7132896137
15150.47444297
15031.4115369746
14951.7685740017
14907.5847296612
14896.4533993669
14917.416950497
14970.6877960782
15057.1204662706
15177.334336361
15330.1487343779
15511.1889490318
15716.5108651274
15953.0767195982
16239.1520368946
16588.817803893
17007.2684336567
17502.0885358019
18083.4144898376
18764.2386872428
19559.8148004569
20473.7728890792
21481.7843633004
22558.9084170475
23696.2876383897
24889.8594476691
26137.8611361657
27439.7366331657
28795.491361197
30205.336814988
31669.3771273984
33187.351020025
34758.3829381681
36380.7243158586
38051.4438373751
39766.0455316471
41518.003669027
43298.3461596171
45094.8279013491
46893.4703660452
48724.6807627695
50624.5615039758
52605.5408188597
54670.6749199259
56816.8374844404
59038.2072495854
61303.2858784883
63600.5204675483
65921.6688205035
68258.2856467942
70602.3065901302
72946.1229623273
75282.4644473605
77604.6496684795
79904.7166969387
82171.6080660234
84390.1798753716
86537.8833536756
88606.7028837365
90624.0260354578
92595.9491602374
94527.393230958
96402.4088085418
98201.4974172133
99901.7060215734
101475.049898194
102885.582495887
104082.665629121
105022.853872645
105816.722487078
106575.672976314
107303.841589146
107995.826051544
108641.853125111
109230.585690538
109751.430025804
110195.24838481
110554.78721878
110825.349936023
111004.079681627
111090.275651589
111084.927589777
110990.892772168
110812.280076761
110554.521067591
110223.702464258
109826.534826966
109369.517753625
108858.698502453
108299.058388865
107694.575348206
107047.666867527
106359.314552864
105629.844040103
104858.747178805
104045.519266908
103190.027643463
102292.864403518
101355.315545847
100379.964304072
99370.6697076385
98332.5356261082
97271.4015136752
96193.408597488
95104.1606762271
94008.2276026426
92908.5697400313
91806.4244507213
90701.2243677405
89590.9693307163
88472.9667626562
87344.3629737873
86202.9871825248
85047.9859429281
83880.4007860246
82703.2071494621
81521.0968364535
80339.7862688748
79165.1868511959
78002.288414684
76854.1940538482
75721.5955229237
74602.8011298697
73494.0097603981
72390.2800300842
71286.7190580083
70179.8002904762
69068.1036152297
67952.9776681841
66838.0447706647
65728.8964839673
64631.8893664827
63551.7404507464
62514.9216036784
61567.3220691213
860533.790343847
158268.052446635
75061.413880227
47759.7771880295
34509.3853998044
27417.0046678457
23345.4076172221
20840.1453705343
19198.1057934335
18061.2808289156
17238.6530414021
16623.4509502185
16153.0676155693
15788.9880592543
15506.433212303
15288.7985486779
15124.6048161073
15005.751616762
14926.5303930139
14883.0523796348
14872.9869061377
14895.4387018862
14950.716140991
15039.8572455231
15163.7458683249
15321.3520338781
15508.1203012528
15719.9010615147
15963.1411083288
16256.16914308
16613.8229306323
17041.5991726324
17547.4797624158
18142.0852850388
18838.9926993416
19653.4420913936
20585.7149308127
21608.3624432828
22698.6473542995
23848.8791397613
25055.4512751386
26316.912463255
27632.9073768963
29003.5591739295
30429.134826657
31909.7255757444
33444.9823447988
35033.8536749081
36674.3043365017
38362.9788083238
40094.7907689071
41862.4478645574
43656.1378480995
45461.9706944013
47273.1375515067
49134.7010571245
51076.7463528466
53108.178080472
55228.8758299835
57433.4306867569
59711.2389718809
62029.6279646567
64378.586535865
66748.9724680195
69131.7935627467
71518.7166966372
73901.8824918249
76274.0737252733
78628.5053403908
80957.9774414949
83253.3039949339
85502.6043006093
87688.9824869294
89783.1848083278
91787.58337386
93749.3488273214
95679.8561388868
97553.774800809
99348.1453873673
101037.975792967
102593.309498455
103972.356697381
105120.620843145
106000.32191816
106780.843265636
107531.106559534
108251.355661365
108934.525668769
109570.159297818
110146.77976962
110653.758303791
111082.106695324
111424.747521677
111677.073233755
111836.451066108
111902.322908463
111875.904685049
111760.201053725
111559.54347448
111279.50076205
110926.361380773
110506.954462639
110027.949260485
109495.455508449
108914.547150008
108289.206328424
107621.890501726
106913.580906229
106164.539551828
105374.27039653
104542.231353857
103668.320168891
102753.13985882
101798.012959084
100805.526916673
99779.5972998231
98725.3571250612
97648.6965837639
96555.7724649499
95452.2097686855
94342.5565245195
93229.7573872657
92114.9999322797
90997.6921662945
89875.8058673369
88746.6070219817
87607.2300929224
86455.4832058644
85290.5041338432
84113.318965145
82926.903745335
81735.9420545897
80546.147966061
79363.4120689683
78192.7006575954
77037.0911528543
75897.2584886673
74771.4930151731
73655.9977835302
72545.8437778808
71436.1439301091
70323.3859564516
69206.1501586928
68085.7570784362
66965.8156818883
65851.8773848253
64750.272115579
63665.5747161501
62623.9612291446
61672.4956235065
860109.829979193
158004.971031329
74936.0232300039
47692.2291305905
34468.5560241663
27384.7991144157
23316.1485089947
20811.5011115716
19169.1604121727
18031.7847386869
17208.6123914591
16592.9505222587
16122.1992437578
15757.8429551184
15475.1057164307
15257.4043715641
15093.2917571088
14974.7186852561
14896.0403082751
14853.4495926562
14844.7011360726
14868.9800892819
14926.7076699777
15019.1253117427
15147.4092902393
15310.7157929417
15504.3468032244
15723.9283429881
15975.2387403499
16276.6600185285
16643.9488779601
17082.9706469172
17602.1952049913
18212.8323132951
18929.1601422208
19766.0351864312
20719.2606584235
21758.6703180538
22864.3654222783
24029.7430203176
25251.7111296776
26529.1564108419
27861.9427873225
29250.3200483636
30694.6041948677
32194.851379265
33750.5830615199
35360.5060764753
37022.2035803969
38731.7668202762
40483.3589835826
42268.7403399927
44077.0610516905
45892.6110155443
47725.6685571078
49629.8178481543
51627.117086027
53722.206037963
55911.2832321347
58186.5583901792
60530.3298090527
62911.9059059245
65321.5711839846
67749.4017659264
70185.8689649833
72622.2977313889
75050.6115608338
77463.5266688042
79854.1695487426
82215.7232257792
84540.1534834316
86817.7129135176
89034.9916484136
91171.135337849
93184.8240422318
95136.2540817555
97069.4931448222
98942.7793330237
100729.819164316
102403.490584641
103931.58846056
105264.890404238
106347.8540122
107164.817475118
107929.885306861
108670.851006087
109382.329194414
110055.354396101
110678.776663035
111240.985393874
111731.3912816
112141.190806157
112463.537438403
112693.987066693
112830.155882632
112871.687852236
112820.046491226
112678.439626857
112451.440166299
112144.803373797
111765.033360889
111319.119233431
110813.908728378
110255.601223075
109649.356840551
108999.18289438
108307.560781029
107575.464497959
106803.103104351
105989.980828672
105135.522325232
104239.648625704
103302.988897879
102326.900993838
101313.987558373
100268.223956692
99194.7871243579
98099.6197689836
96988.9026377778
95868.2779981147
94742.2713427943
93613.8008045184
92484.0011098699
91352.2423908554
90216.4628352046
89073.8874112306
87921.6348137755
86757.4935141151
85580.5898449449
84391.9355870903
83194.5056811065
81992.9760033962
80793.0547723747
79600.6077127262
78420.5681538182
77255.9843110643
76107.50660215
74973.4060144712
73849.8877772238
72732.0388651166
71614.9848989047
70495.2297258575
69371.3560813111
68244.6553066788
67118.7181609161
65999.0481444422
64891.9386942285
63801.825302388
62754.5516106776
61798.343802054
859615.506794736
157692.186384592
74788.1498750728
47611.4335951895
34418.3904205725
27345.4104505043
23280.7688180454
20777.052626424
19134.4171976279
17996.4096320305
17172.6052251539
16556.4100145276
16085.2368666439
15720.5679346347
15437.6330080814
15219.8734809675
15055.8838817606
14937.6768429342
14859.6860646471
14818.1983412022
14811.0662029481
14837.5724540664
14898.2675925485
14994.6110885245
15128.089430433
15298.0950087844
15499.8712756877
15728.8011609586
15989.805290565
16301.3015089316
16680.137524519
17132.6340535446
17667.8591680748
18297.7345797933
19037.3561318344
19900.5186223212
20877.2637198578
21935.7241764205
23059.3032974
24242.3829029058
25482.4391021799
26778.7199453886
28131.3210521163
29540.6237510096
31006.9776217653
32530.3690005268
34110.1307431175
35744.6390492523
37430.971240912
39164.5031450797
40938.4549106501
42743.4484994708
44566.9376133236
46395.0467209381
48265.7839215442
50228.5811301096
52297.6017865904
54472.2846270248
56744.7216183356
59104.5240679699
61525.3639299962
63981.3659183704
66462.1425568898
68957.0130735045
71455.9298079001
73949.8497871435
76430.4827539084
78890.3922898273
81322.574423185
83720.2996700738
86076.1089497517
88381.4236371922
90624.8744644057
92789.50236294
94841.7937432765
96792.3636665032
98733.9826529759
100606.111248439
102380.623548113
104028.863152803
105514.620875235
106782.909065525
107779.879181671
108537.967130903
109287.358053812
110018.698712648
110720.492606168
111381.812710434
111990.852981639
112535.920399509
113006.555325533
113394.2027157
113692.311755932
113896.676954082
114005.203493661
114017.794366063
113936.193061033
113763.863272629
113505.648265911
113167.535478739
112756.267044136
112279.029511805
111742.864953788
111154.084435223
110517.931342768
109838.453080967
109118.144581048
108357.961578556
107558.066727494
106717.957989598
105837.027654188
104915.21550796
103953.191157351
102952.350397072
101915.31994414
100846.141161327
99750.0488426024
98633.0419419339
97501.331774302
96360.5746433169
95215.2703069162
94068.2992282267
92920.737510719
91771.9051337839
90619.6996626564
89461.3048698069
88293.82142456
87115.0196525817
85924.0127209471
84721.7986125231
83511.3498771127
82297.3342353727
81085.4503127705
79881.5328714733
78690.4717032371
77515.2818214909
76356.5795964841
75212.6151270156
74079.594907987
72952.6258675384
71826.8541171999
70698.8031486073
69567.0602804404
68432.8859548601
67299.8480407495
66173.3924514689
65059.7642558316
63963.2660222463
62909.3782465136
61947.3347885393
859012.742867553
157293.916840213
74607.3651648433
47513.7561686657
34358.1010128438
27298.5978759384
23238.8968434727
20736.2832365435
19093.2797978671
17954.5148538255
17129.9620500272
16513.1415219397
16041.4804458642
15676.4561120466
15393.3054147048
15175.4997233971
15011.6861971089
14893.9521834123
14816.8249988135
14776.6996555474
14771.5417415172
14800.7490337356
14865.0159678587
14966.0248510092
15105.5754527347
15283.3644726176
15494.7293260924
15734.7954826245
16007.3980174318
16330.9533669563
16723.5618057452
17192.1300703359
17746.4597675436
18399.3277892387
19166.7236889892
20060.2365789969
21062.9338966962
22142.9562551688
23287.1466947551
24490.789375336
25751.9690829868
27070.3150254515
28446.1621951094
29880.017455593
31372.2368325777
32922.6841259042
34530.4200705237
36193.3702020982
37907.9456000179
39668.6076553107
41467.4141699708
43293.6684242644
45132.5503740315
46984.9507617152
48914.5453725384
50956.7247013797
53117.6778645634
55390.8536596807
57764.0605923777
60223.3556824722
62734.3668154069
65277.7219256699
67841.6780551046
70414.8124475871
72986.5942657966
75547.6104747572
78089.3326175835
80604.0881450649
83084.644548793
85524.0915454246
87915.0357987756
90249.2100652901
92516.0419076832
94700.8199002294
96784.1979365177
98763.0843855602
100718.148635564
102585.378859104
104337.542828665
105945.304440741
107367.066433032
108543.24593957
109429.32362318
110144.054959778
110879.888496531
111601.567335872
112292.602999096