/*--------------------------------*- C++ -*----------------------------------*\
  =========                 |
  \\      /  F ield         | OpenFOAM: The Open Source CFD Toolbox
   \\    /   O peration     | Website:  https://openfoam.org
    \\  /    A nd           | Version:  12
     \\/     M anipulation  |
\*---------------------------------------------------------------------------*/
FoamFile
{
    format      ascii;
    class       volScalarField;
    location    "0.028";
    object      p;
}
// * * * * * * * * * * * * * * * * * * * * * * * * * * * * * * * * * * * * * //

dimensions      [1 -1 -2 0 0 0 0];

internalField   nonuniform List<scalar> 
54000
(
1726.56856512918
1717.44703956239
1709.05707576221
1702.34902138866
1697.90211532718
1693.18601223596
1688.11547989975
1682.93066743223
1677.45498236431
1671.81399202465
1665.90328183906
1659.82810243896
1653.54578565093
1647.14283941365
1640.62728923391
1634.0552078782
1627.45207015791
1620.82275571405
1614.52763926752
1608.45679753061
1602.53896264038
1597.27599686174
1592.5397973134
1588.09842553682
1584.38818618954
1583.07549601851
1586.73918596772
1595.57431883649
1609.54462140878
1626.84836194894
1644.67373302936
1662.65686423493
1681.27202732724
1700.64296415754
1720.91175123011
1742.08009840078
1764.48738863234
1787.71596907602
1812.30267565772
1838.43363737345
1866.29288564158
1896.04767753211
1927.93936238435
1962.23129176887
1999.12413465772
2038.78152380648
2081.3569983277
2127.149668932
2176.42518059984
2229.37630755961
2286.31402825777
2347.49277228207
2413.02353137369
2482.36109262612
2553.41277440896
2623.79498258601
2695.56859357726
2773.76019263255
2859.21826457013
2952.37726083703
3055.00587470304
3164.14885633954
3281.29004144593
3402.94319278535
3532.01243798767
3664.57943568717
3804.94578882063
3948.35719852976
4100.53580149417
4255.41455223406
4420.23727661014
4587.15663292849
4765.43019139018
4945.23159890016
5138.67984635051
5333.60463355616
5545.64956905126
5759.39211354698
5995.49193861594
6235.55332008847
6508.67467873108
6795.75308849138
7129.37341971578
7497.9504777005
7885.29162111607
8248.3493074788
8581.51859230166
8886.36839542356
9173.57919455714
9443.70399679524
9704.04602870323
9958.777715044
10200.9788363817
10438.8391165847
10667.0446022052
10889.0301404828
11099.0145883411
11300.0468894198
11486.5151383905
11661.6161888747
11820.3798240174
11966.8760799183
12098.0332048647
12218.9846267347
12327.3185625043
12426.7233956859
12518.3939083234
12597.838553034
12670.5047936204
12732.0698667145
12783.3441748403
12819.4135635036
12842.1840036636
12849.1159546743
12843.579424292
12824.0757501544
12793.7532531608
12752.3336980422
12704.6652421017
12651.9652471169
12598.0825625609
12542.6437006016
12487.7778594818
12434.3990359044
12381.5109565872
12330.7453200705
12278.6429614131
12223.3746979713
12161.3296321852
12093.0048004125
12017.7447837409
11938.3721177744
11856.1295500139
11773.7033949748
11691.9971057064
11613.9137502595
11540.2626297932
11472.7837846195
11411.6119911645
11354.6095985658
11300.2735954555
11246.1555851474
11190.2750438464
11132.0356382756
11072.801331202
11012.2163954863
10952.8484671019
10894.9856132967
10844.561923713
10799.5582904111
1726.32563505278
1717.26603175669
1709.0104768537
1702.22962490482
1697.78645140954
1693.04385925753
1687.9523407788
1682.75610639526
1677.24939937738
1671.59902150594
1665.64296522897
1659.56928348951
1653.23708009748
1646.84776319344
1640.28032972941
1633.74224373456
1627.12796885174
1620.63866386439
1614.28563297923
1608.12325422762
1602.34018355626
1597.00957030157
1592.14999608515
1587.7510812696
1583.98205566466
1582.67313618411
1586.24203595362
1595.38975073195
1609.48249304579
1626.77879661016
1644.57338264855
1662.56749636717
1681.16219520114
1700.54219588321
1720.77421867062
1741.97549246634
1764.37083840213
1787.58928894768
1812.15811004974
1838.29448070313
1866.1764715612
1895.99083054848
1927.96584372213
1962.29783302108
1999.19541996347
2038.85693350899
2081.47321433868
2127.30036992244
2176.58092917802
2229.54960209727
2286.49101276882
2347.6682054203
2413.15395209423
2482.37314289914
2553.34404557089
2623.89117482542
2696.11577404623
2773.94692057043
2859.63894159762
2953.86549738293
3056.41440830997
3166.50458310069
3283.19078794743
3405.93355001517
3534.3109692668
3668.2319608047
3807.6788545132
3952.78196654546
4103.77267157007
4260.75975719694
4424.06439504961
4593.61021183107
4769.95490352735
4953.01931068386
5144.01947715705
5342.99662768056
5551.94505666833
5770.79959559624
6003.00917109617
6249.78854599709
6518.06021115278
6811.5224237112
7140.80042957722
7509.21782854306
7894.71822538924
8257.18411144016
8588.48346591436
8893.2539127669
9179.10746266109
9449.42619959303
9709.23888521294
9962.17631996549
10205.4522720577
10442.7912877213
10671.6800826926
10893.0008758232
11103.5826286673
11303.9324957633
11490.9575221872
11665.3917162395
11824.6723293316
11970.527646092
12102.1633827017
12222.5275913416
12331.2793506098
12430.4534747895
12521.0769190476
12601.3097245717
12673.6592254606
12735.6978030598
12786.5234288922
12822.9356573643
12845.2367440796
12852.4443573794
12846.4746419579
12827.214572971
12796.498966772
12755.2734191016
12707.239653433
12654.7156852638
12600.5251356085
12545.2599961646
12490.2275671271
12436.4489636174
12383.853866034
12332.8745712463
12280.9325375763
12225.3958061927
12163.4611378532
12094.8613113879
12019.6765628321
11940.0521699078
11857.8791274667
11775.2468784063
11693.6383956422
11615.394319396
11541.8464842636
11474.2661145799
11412.9121602125
11356.0656693753
11301.6308327766
11247.314622862
11191.5504716619
11133.1910731352
11073.774771215
11013.3028338897
10953.8336213373
10896.0878114794
10845.5116733151
10800.2433548687
1726.1541435876
1717.00022974579
1708.74837595648
1701.97943702389
1697.58428688185
1692.82139900829
1687.7527492825
1682.53592054631
1677.05008498468
1671.37997876766
1665.44166947561
1659.34627955719
1653.02967765015
1646.62069480773
1640.06989938197
1633.51831192576
1626.92813577024
1620.44352431105
1614.08285573569
1607.93246573358
1602.15053658186
1596.81164314493
1591.9515513903
1587.53977313941
1583.79003708005
1582.49648757327
1586.12186872425
1595.30698356248
1609.43392545681
1626.70246897664
1644.47091226514
1662.4431513503
1681.01461442364
1700.37041833418
1720.59101462427
1741.79474031607
1764.19974377753
1787.41817893764
1811.98045688809
1838.12207071914
1866.02403246133
1895.87828250411
1927.88916829464
1962.24578238382
1999.15271399659
2038.82069817964
2081.45785490075
2127.30306248113
2176.58307705857
2229.56176792485
2286.49739178418
2347.6717262307
2413.11933262984
2482.29847372411
2553.08504812793
2623.60947037425
2695.95406576692
2773.8578098328
2859.73930820823
2954.31474944371
3057.06118988203
3167.41476111307
3284.13751824961
3407.10408887706
3535.46037363054
3669.65359867227
3809.05376561804
3954.50508986462
4105.41800141208
4262.85240689002
4426.03774201142
4596.16248497603
4772.33015048111
4956.13868983801
5146.86978087214
5346.79407945745
5555.35441941011
5775.4630346497
6007.18089352738
6255.76323444605
6523.53760350748
6819.07282374895
7148.26487723632
7516.95818987622
7901.94032416257
8263.52925878279
8593.22387583621
8897.64712765678
9182.39968029777
9452.73196949958
9712.04453811599
9963.9212811479
10207.770491506
10444.6599916351
10674.0299455025
10894.8666660475
11105.8921404798
11305.7571570293
11493.2073439373
11667.1795403973
11826.8637261443
11972.2847420511
12104.3063708837
12224.2950362913
12333.4015818182
12432.4141925814
12522.5429614465
12603.2635739863
12675.3953790736
12737.7916145301
12788.3378428566
12824.9937561961
12846.9863963523
12854.3753197869
12848.1293385615
12829.0300840636
12798.073773269
12756.9608335516
12708.7058193487
12656.2850682325
12601.9391753322
12546.7918299788
12491.6913908879
12437.7304219535
12385.2605574723
12334.1557295248
12282.2851177023
12226.5957196336
12164.6853270467
12095.9173735916
12020.7321048371
11940.9656906199
11858.8031186125
11776.0856939928
11694.5320192866
11616.2504978817
11542.7656898882
11475.1711859574
11413.7417075805
11356.9419132464
11302.4525175041
11248.015462918
11192.2544184925
11133.8188121306
11074.297244617
11013.8536910285
10954.3628582762
10896.7065089835
10846.0197909842
10800.4040276495
1725.87379785532
1716.68407843068
1708.41903493925
1701.65267498212
1697.28536932898
1692.52143249537
1687.47715393367
1682.2596339206
1676.79807966621
1671.12166760802
1665.20172603761
1659.09631216342
1652.7976903278
1646.38088361373
1639.85097359861
1633.29543947774
1626.72954571139
1620.24741837222
1613.89743108987
1607.76841159231
1601.98923612818
1596.65691133451
1591.81088702902
1587.40426391992
1583.70970620166
1582.48322861118
1586.18639527791
1595.36666074716
1609.44876006501
1626.67409864379
1644.40661757779
1662.34173914758
1680.8752413203
1700.19472143979
1720.39399340175
1741.59770511614
1763.99112377881
1787.21644398275
1811.76182474027
1837.90273371077
1865.81717112246
1895.68993555384
1927.71139168624
1962.07807388326
1998.99445838332
2038.67223519574
2081.32323475037
2127.17718682411
2176.46238527202
2229.44388436548
2286.38238466707
2347.54703051307
2412.96475904349
2482.01595997701
2552.45389675865
2622.78692999832
2695.22882917349
2773.3930407997
2859.62661132137
2954.45390047673
3057.42403300707
3167.89118384688
3284.72387448325
3407.72687459155
3536.17367318272
3670.40476578077
3809.91275077755
3955.41720525165
4106.45811337526
4263.96773603587
4427.30764871234
4597.54282568307
4773.89690452795
4957.85653459318
5148.79274404843
5348.90694363656
5557.69780122199
5778.09140087541
6010.14314402157
6259.25449890735
6527.6747779614
6824.27405683119
7154.72070177687
7524.0836134939
7908.76093018991
8268.70401615285
8597.01530832591
8900.54537745053
9184.5002393141
9454.40595560615
9713.41171779862
9964.69409928146
10208.5433232503
10445.2720758461
10674.6989246435
10895.4178240334
11106.5163238799
11306.2755823043
11493.8058427306
11667.6888597839
11827.4559213156
11972.7985743146
12104.9188733474
12224.8754049978
12334.0964297906
12433.1729412507
12523.1519433724
12604.0212989021
12676.1580869435
12738.6741098147
12789.181555292
12825.8780195002
12847.7771480348
12855.1761865636
12848.8514766068
12829.7825674524
12798.7655889987
12757.661878149
12709.3420738916
12656.9518425246
12602.6020298999
12547.528107857
12492.4679379038
12438.4555176845
12386.0115688211
12334.8590263671
12282.9869437573
12227.2334294591
12165.2868506861
12096.4290452672
12021.2019400371
11941.3694552412
11859.1984264122
11776.4760088325
11694.9759130597
11616.7359619615
11543.3124848775
11475.7543857437
11414.3081237249
11357.5037402526
11302.9724116484
11248.4457303565
11192.6312495251
11134.1329241991
11074.5460171302
11014.1055459683
10954.6338553677
10897.0769397086
10846.2779363553
10800.2122647984
1725.45348027108
1716.28053831961
1708.02594364728
1701.24902115577
1696.88803960572
1692.1291855922
1687.10554001052
1681.89886567019
1676.45744055039
1670.78601269512
1664.88023435603
1658.77691819004
1652.49360584889
1646.08235310624
1639.5714826921
1633.02387460935
1626.47803022238
1620.00739719387
1613.67710359246
1607.57316539823
1601.81024729008
1596.50046446397
1591.68593896163
1587.31992297152
1583.71748907305
1582.60420211221
1586.3923715347
1595.54022851203
1609.53033294278
1626.69092085019
1644.37767382647
1662.26744489464
1680.75516961709
1700.03616199489
1720.21048623382
1741.40336017009
1763.7563495811
1786.98116943435
1811.50089955342
1837.62919214786
1865.5430090944
1895.41579826971
1927.43694240109
1961.80638587593
1998.73043232218
2038.4186225784
2081.08170409051
2126.94526192042
2176.24062609845
2229.22959340255
2286.1773757185
2347.33457951065
2412.67427357167
2481.43842725064
2551.37175996864
2621.42708100245
2693.99998499071
2772.60310194933
2859.30706657309
2954.51342315139
3057.73574016953
3168.3091819132
3285.25414803794
3408.27724716057
3536.82204479078
3671.06987147675
3810.70132494085
3956.23042181631
4107.42458131793
4264.97083965219
4428.5067583612
4598.80314961403
4775.40960328742
4959.45453247253
5150.68868810105
5350.89755465359
5560.04995126474
5780.60418318874
6013.1945901869
6262.68975145464
6532.12151958857
6829.85415006358
7162.1907401454
7532.44024103473
7916.62389057627
8274.3133528103
8601.01206345581
8903.27497593088
9186.33281323835
9455.57079687219
9714.18860986462
9965.03621919459
10208.700696084
10445.3089357156
10674.6521627265
10895.3283351612
11106.3915784716
11306.1295612984
11493.6423343452
11667.5170423212
11827.2751053756
11972.612430543
12104.7544009171
12224.7588238302
12334.0451053038
12433.2203773284
12523.1880636098
12604.1313064257
12676.3191402083
12738.8935658401
12789.4110783679
12826.0893693651
12847.9341894768
12855.2950465029
12848.9383938087
12829.8753508631
12798.8516058604
12757.7410656561
12709.4081405542
12657.0500857343
12602.7634747123
12547.7855748406
12492.8170166397
12438.8253014287
12386.3927213473
12335.2138699579
12283.3203949957
12227.5278845803
12165.5282059094
12096.6016790247
12021.3262428327
11941.4572736408
11859.2880458235
11776.6044759711
11695.1849771209
11617.0350640558
11543.6975228091
11476.2029885174
11414.7690489889
11357.9453366798
11303.3618807417
11248.7463097539
11192.853131411
11134.2841351609
11074.6459581534
11014.2113722787
10954.7820664856
10897.35376054
10846.427019656
10799.8175243501
1724.86119093872
1715.75010677338
1707.54572636018
1700.75727643005
1696.3890421316
1691.63368763481
1686.62694479234
1681.43576748363
1676.01242424659
1670.35131401722
1664.45841632927
1658.36374813068
1652.09549931999
1645.69700981673
1639.20508599242
1632.67257956708
1626.14745262002
1619.69648507302
1613.39078673256
1607.31550213369
1601.58114709067
1596.30603058931
1591.53750651976
1587.2415259957
1583.76299253744
1582.79692877001
1586.68132083292
1595.79070881634
1609.66384705935
1626.73847352274
1644.36945877998
1662.20697257414
1680.64345810626
1699.88171493497
1720.02369343191
1741.18965812325
1763.48121942484
1786.68802089891
1811.18133793607
1837.28639591147
1865.18484888143
1895.04740144615
1927.06418940396
1961.43590340817
1998.36859253739
2038.06811493799
2080.74441175925
2126.62053196208
2175.92971289639
2228.93178686323
2285.89043682054
2347.02082392188
2412.21030259192
2480.56185178103
2549.84988268048
2619.60636859523
2692.40943879697
2771.59610427489
2858.88914048755
2954.55381793338
3058.1006340737
3168.81819612199
3285.88278840134
3408.95113882941
3537.59778774467
3671.89228905088
3811.6536506689
3957.24390834618
4108.60054782179
4266.22780024259
4429.97521954648
4600.38915490807
4777.27385166018
4961.4739544916
5153.03998835686
5353.42247830435
5562.98486500909
5783.80630839253
6017.03395063879
6267.10254292893
6537.79986610991
6837.07389699575
7171.86224631919
7543.16690413764
7926.39014030025
8281.24124174391
8605.87048694769
8906.46487530982
9188.33606942846
9456.68190921592
9714.74607557471
9965.13906384386
10208.5451805514
10445.0074119807
10674.2216715028
10894.8455436313
11105.8397691881
11305.5510661887
11493.013128934
11666.8734292148
11826.5875327026
11971.9121823192
12104.051115404
12224.1150760489
12333.4634524749
12432.741432242
12522.7497703574
12603.760514159
12676.0153368896
12738.6395593345
12789.1760092597
12825.8149272051
12847.60487331
12854.9108970227
12848.5353313577
12829.4829453771
12798.4786924159
12757.3698752836
12709.0507596936
12656.7479000159
12602.5720038013
12547.7325675873
12492.8982710892
12438.9726318807
12386.5598282258
12335.3615823465
12283.4411102784
12227.6152405665
12165.555253504
12096.561838389
12021.2386837443
11941.3472724624
11859.1967730385
11776.5846853522
11695.2811770748
11617.2618617817
11544.0425501581
11476.6342724865
11415.2274473452
11358.3781294346
11303.7266043183
11249.0066113363
11193.0151263498
11134.3611902804
11074.6720152737
11014.2525619775
10954.8860413525
10897.6209694336
10846.5593349448
10799.3193702862
1724.11067598548
1715.04877969977
1706.94280789728
1700.15872186113
1695.78058376151
1691.02556990926
1686.03132834079
1680.85601564382
1675.44971730639
1669.80189383297
1663.92309679899
1657.84175724581
1651.59056503895
1645.20959547206
1638.73863404858
1632.2267014726
1625.72591764973
1619.30108525712
1613.02507555135
1606.98386633327
1601.28783766738
1596.05763018915
1591.34842346409
1587.1465587172
1583.82246511219
1583.03597033688
1587.03384022029
1596.10241634172
1609.83637341091
1626.80521436098
1644.37008689047
1662.14699507018
1680.52431897723
1699.71060133583
1719.80833218456
1740.92996741962
1763.14462728144
1786.3160400378
1810.77974427791
1836.85411731698
1864.72788001497
1894.57450855053
1926.5845675277
1960.95865597596
1997.90000514763
2037.61133113377
2080.30227736834
2126.19430638506
2175.52148818125
2228.54063306584
2285.50372757414
2346.57507663704
2411.55472109368
2479.37184729826
2547.92231340894
2617.38464436039
2690.5499626221
2770.45714565898
2858.46128798615
2954.68435839675
3058.58866784936
3169.4921313268
3286.69403573715
3409.84235795457
3538.60376082203
3672.98556875951
3812.89306757525
3958.59457048262
4110.13370932717
4267.90344409252
4431.88919196863
4602.49718348344
4779.69449041179
4964.14285144886
5156.08248070627
5356.74929335148
5566.78040571748
5788.02487233564
6022.0108135497
6272.93529785902
6545.2099326024
6846.55281163843
7184.41596092763
7557.16554192467
7938.58162067386
8289.89894010064
8611.82931080102
8910.26096935102
9190.56974074263
9457.77753571196
9715.11164884168
9964.97339839946
10208.0686185397
10444.3559666617
10673.4277085345
10893.9829793939
11104.8957460397
11304.5612552966
11491.9550452703
11665.7804242954
11825.429669082
11970.7213274538
12102.847840196
12222.9755183768
12332.3979528002
12431.788014012
12521.8672866595
12602.9562944571
12675.2933789266
12737.9784163258
12788.5390440493
12825.1296768179
12846.8566689435
12854.1009271747
12847.7131028535
12828.6864203315
12797.7236533126
12756.633281922
12708.3496524878
12656.1320228816
12602.1117286144
12547.4608372838
12492.8055213945
12438.9820025233
12386.601151765
12335.3851208285
12283.4343437
12227.5739652966
12165.4462507104
12096.3795633142
12021.0082250396
11941.1026151196
11858.9882074272
11776.4776031978
11695.328621823
11617.4804363216
11544.4147022472
11477.1162259147
11415.7462632697
11358.8646291839
11304.1264579478
11249.2783343824
11193.1662932221
11134.4097224516
11074.6634412616
11014.2681880471
10954.9861954244
10897.9193541478
10846.7370405864
10798.7942149396
1723.23544493326
1714.13848863817
1706.17699661402
1699.42079666687
1695.04491944039
1690.29273163351
1685.30715247752
1680.14480945363
1674.7538860975
1669.12145953538
1663.25966441529
1657.19631432836
1650.96566365053
1644.60662142714
1638.16019928925
1631.674274841
1625.20295702276
1618.8105950849
1612.57079814429
1606.57100574433
1600.92259433173
1595.74784899
1591.11236442383
1587.02901856124
1583.89402822699
1583.32331289004
1587.45471600599
1596.47440795909
1610.04043981109
1626.883423679
1644.37162595045
1662.07749247394
1680.38436397533
1699.50594337864
1719.54485939676
1740.60382793884
1762.72820612927
1785.84894552651
1810.27629209797
1836.31422146687
1864.15766175847
1893.98420639754
1925.98443888685
1960.35757623935
1997.3039075877
2037.02585318698
2079.73245976996
2125.6439093829
2174.99381371514
2228.03199114614
2284.98953510076
2345.97116929975
2410.66557082745
2477.79390943337
2545.55929389565
2614.78626789826
2688.48050331547
2769.25394791036
2858.08384007895
2954.97308349492
3059.25032093939
3170.37518803213
3287.73764326015
3411.00015292595
3539.89713020771
3674.4066520243
3814.48681913863
3960.35028700276
4112.10522453719
4270.08074252804
4434.34860593345
4605.23009848697
4782.79228432005
4967.58093256923
5159.95531755462
5361.0203495352
5571.60925184699
5793.44959769142
6028.36786496873
6280.48103879522
6554.74239688018
6858.79008349355
7200.41425308089
7575.43589329572
7953.51596775127
8300.40051265862
8618.83498555761
8914.52431683317
9192.86438893776
9458.68584353562
9715.13552088088
9964.40039071248
10207.1522089812
10443.2540108552
10672.1882378832
10892.6724974802
11103.5028313896
11303.1097546447
11490.4242866409
11664.1977405697
11823.7666346322
11969.0075951373
12101.1198043556
12221.3219325712
12330.8395258617
12430.3607190773
12520.5409883398
12601.7257889847
12674.1635363587
12736.9286102803
12787.5214301267
12824.0588765269
12845.7138244639
12852.8919564881
12846.4980853216
12827.5164507918
12796.6186584235
12755.5667062695
12707.3399889264
12655.2406320955
12601.4231290918
12547.0159224785
12492.5887900703
12438.9021748934
12386.5646891955
12335.32878119
12283.3424715701
12227.4431754116
12165.2376234927
12096.08650475
12020.6639116401
11940.7502200754
11858.6892564458
11776.3109476413
11695.3579874211
11617.7244206407
11544.8504815662
11477.687523827
11416.3632193486
11359.4403279152
11304.594008891
11249.5891348638
11193.3301258196
11134.4500381304
11074.637692776
11014.2749799824
10955.1019916522
10898.2664617423
10847.0108197947
10798.3216484998
1722.22636682518
1713.00835622017
1705.21433508816
1698.50451209125
1694.15462301208
1689.41764413025
1684.43959973702
1679.28531616989
1673.90709016753
1668.29200962278
1662.45138279312
1656.41120402176
1650.20555359909
1643.87313593809
1637.45593747146
1631.00191703828
1624.56625004641
1618.21343704371
1612.017864162
1606.06856703667
1600.47811443234
1595.37099418377
1590.82615047649
1586.8891955656
1583.98405761827
1583.67026449345
1587.95676621195
1596.91137976033
1610.270848172
1626.96654598145
1644.3675380275
1661.99002512151
1680.21249270872
1699.2544011581
1719.21791665729
1740.19471362944
1762.21596870624
1785.2719364403
1809.65400437183
1835.64979878623
1863.45829831341
1893.26067847739
1925.24726065461
1959.61532927104
1996.56397875898
2036.29561330875
2079.01896539745
2124.95315193602
2174.32942736395
2227.38692339208
2284.32640799929
2345.17344977084
2409.45864562509
2475.68569427972
2542.66903877965
2611.83115778862
2686.26871014185
2768.06598915892
2857.82032711142
2955.40307367378
3060.11934849605
3171.50533300162
3289.05388807373
3412.4631605061
3541.52252349961
3676.20039507564
3816.48885777224
3962.56719708106
4114.58406100954
4272.83325223744
4437.44432350785
4608.68657747748
4786.68760763246
4971.91412776238
5164.80416977365
5366.39058039599
5577.66033492875
5800.29838178231
6036.38625620935
6290.09215101928
6566.84162570894
6874.43229569937
7220.51359433518
7598.3946987341
7971.19551443722
8312.57078209135
8626.59860621986
8918.93126214292
9194.91084788012
9459.13227736829
9714.59115792078
9963.23587253455
10205.6487927714
10441.5827800417
10670.4043133512
10890.8311806761
11101.5881445429
11301.1311759815
11488.3600042889
11662.0688732786
11821.5447923289
11966.7203448088
12098.8215793886
12219.11669709
12328.7583331303
12428.4376879049
12518.7533414208
12600.0565593837
12672.6158832317
12735.4842201392
12786.1195147816
12822.5995291283
12844.1724464329
12851.2800844727
12844.8864834363
12825.9719026754
12795.1655592454
12754.174436009
12706.0271907666
12654.0816792485
12600.5181631016
12546.415299105
12492.2709743834
12438.7580879404
12386.4745068049
12335.2129799577
12283.1824864594
12227.2373140601
12164.9409844691
12095.6906291768
12020.211678272
11940.2958405257
11858.3070340671
11776.0944858084
11695.3832392938
11618.012168093
11545.3720231918
11478.3728850186
11417.1032040283
11360.1278518253
11305.1483451828
11249.9539025292
11193.517645369
11134.4901246711
11074.6012751615
11014.279747554
10955.2437452975
10898.6699761268
10847.4326962509
10798.0133836586
1721.00080302847
1711.67579187462
1704.04303513475
1697.38032396092
1693.07983254508
1688.37698153268
1683.40847625022
1678.25720480943
1672.88914888172
1667.29403546426
1661.47981985673
1655.468528971
1649.29297756137
1642.9923618116
1636.60997275267
1630.19443686616
1623.80161576962
1617.49648211663
1611.35450823805
1605.46642130051
1599.9461211878
1594.92141564521
1590.48789274507
1586.72976025204
1584.09994414244
1584.08741861366
1588.55279048513
1597.41884482313
1610.52254666395
1627.04776083245
1644.35048935849
1661.87545109788
1679.99758032496
1698.94300164535
1718.81254288561
1739.68662440026
1761.59184410061
1784.56938640428
1808.89591091238
1834.84304482946
1862.6116212274
1892.38545008322
1924.35455301413
1958.71457554408
1995.66436840211
2035.40590482997
2078.14776047096
2124.10804116524
2173.51361696691
2226.58785804137
2283.48653315507
2344.12258076647
2407.80983399135
2472.92216521331
2539.19298612821
2608.58406294463
2684.01909996843
2767.00035126658
2857.78453120542
2956.04072773748
3061.24206589274
3172.92571005144
3290.68898534723
3414.27870227787
3543.53317088647
3678.42370464857
3818.96587545008
3965.31918300369
4117.65839067499
4276.2599765421
4441.29418091829
4612.99871459603
4791.53638955704
4977.3149962063
5170.8222187915
5373.06971922864
5585.17934348512
5808.8593309931
6046.42640468469
6302.21496936111
6582.12706555317
6894.36598926514
7245.52947841349
7625.45635174403
7991.16999470038
8325.87311641653
8634.58895068613
8922.99159840723
9196.29031874241
9458.77794122397
9713.21678882465
9961.27973255518
10203.4072321456
10439.2250801831
10667.9802298203
10888.3780132205
11099.0789143138
11298.5577476011
11485.6967295216
11659.3305575104
11818.7015388021
11963.7979221783
12095.8952513592
12216.3093306203
12326.1111291104
12425.9822383632
12516.472277234
12597.9208234679
12670.624255912
12733.6213442736
12784.3106588493
12820.7279967635
12842.2073271822
12849.2391408696
12842.8520402559
12824.0290889881
12793.3447962692
12752.4401319616
12704.3970229586
12652.6440978072
12599.3909098338
12545.6597882896
12491.8594193259
12438.5605917386
12386.3410623777
12335.0442676787
12282.9567214257
12226.9562211615
12164.5537225875
12095.1861728855
12019.6446321955
11939.7339585139
11857.8390726222
11775.8297236795
11695.4114393112
11618.3561517429
11545.9965426279
11479.1923524407
11417.9863096385
11360.9449076468
11305.803198745
11250.3819927659
11193.7346412602
11134.5331037594
11074.5563778529
11014.2859576541
10955.418834263
10899.1364790302
10848.0551108819
10798.0357809206
1719.48064502752
1710.13740297063
1702.64751040953
1696.03352724517
1691.79727435957
1687.14350878186
1682.1865398467
1677.03541583689
1671.67767684506
1666.10687783589
1660.32512918726
1654.34868566956
1648.2087548079
1641.94573606542
1635.6046618757
1629.23508191784
1622.89339437997
1616.64526960138
1610.56761589393
1604.75308223947
1599.31739826655
1594.3935490386
1590.09766454825
1586.55690146756
1584.25008290279
1584.57996807325
1589.24819795168
1597.99968207351
1610.79237000394
1627.12064832661
1644.31068585797
1661.72203703398
1679.72650347296
1698.55683957709
1718.31182654236
1739.06193345509
1760.83790038758
1783.7234587401
1807.98318363912
1833.87403351662
1861.59700466601
1891.33769318037
1923.28583839595
1957.63591815602
1994.58678946112
2034.33957834852
2077.102636319
2123.09262093519
2172.52892596108
2225.61009970165
2282.42214583845
2342.71804279594
2405.5311416584
2469.44839947232
2535.19130096298
2605.19002835963
2681.88630514346
2766.19494229351
2858.11118602972
2957.01928753194
3062.68688361367
3174.69286872957
3292.70276658244
3416.51070558724
3546.00034963479
3681.15522721798
3822.00876768296
3968.70933489671
4121.44868467612
4280.49757996008
4446.05590664135
4618.34165350978
4797.5353933714
4983.99955178902
5178.24899027334
5381.31515241349
5594.46140381995
5819.47822151933
6058.92420035583
6317.4251141105
6601.46428148821
6919.79606363654
7276.5049536613
7655.78926402189
8012.5483574092
8339.41483015945
8642.0179905497
8926.0544951107
9196.49717998353
9457.2459607124
9710.73970503715
9958.33386551537
10200.2829002937
10436.070745528
10664.8258362605
10885.2347041206
11095.9021547789
11295.3183680404
11482.362978227
11655.9112728742
11815.1639332112
11960.1663987407
12092.2696911634
12212.8363589465
12322.8417850255
12422.9441845929
12513.6521004075
12595.2764119379
12668.1471569524
12731.2998321614
12782.0554779948
12818.4030861014
12839.7753526291
12846.7249071327
12840.3504288748
12821.6467976851
12791.1208763084
12750.3331240275
12702.4221277752
12650.9046633886
12598.0243871517
12544.7404769136
12491.3530663256
12438.3130952143
12386.1675364583
12334.8213181978
12282.6587475973
12226.5908711199
12164.0648109252
12094.5592313406
12018.9484980805
11939.0532069453
11857.278722637
11775.5149727295
11695.4477848707
11618.7678984126
11546.7411117866
11480.1657834404
11419.0319150153
11361.9080850789
11306.5707755633
11250.8808818218
11193.9850927834
11134.5807161011
11074.504154962
11014.296752844
10955.6343209679
10899.6776303446
10848.9065309151
10798.5606145749
1717.70860317825
1708.22311830535
1700.95977843621
1694.45810493774
1690.29570773708
1685.68811155637
1680.7391567371
1675.59035309775
1670.24880807174
1664.7090682311
1658.96602065327
1653.03017445449
1646.93173612056
1640.71292807162
1634.42073811761
1628.10567171203
1621.82463525157
1615.64422162488
1609.64311447132
1603.91624289494
1598.58215475989
1593.78198780531
1589.65764290158
1586.3821476275
1584.44912147731
1585.14983579599
1590.02898559405
1598.64752846794
1611.08626202724
1627.18014676401
1644.23376124295
1661.51415221844
1679.3830842962
1698.0779140587
1717.69576063628
1738.30023680527
1759.93338357175
1782.71335678627
1806.89430000154
1832.72026929698
1860.39136231287
1890.09430885824
1922.01847188981
1956.35735243804
1993.31014859416
2033.07656257354
2075.86439492914
2121.8871319552
2171.35071811705
2224.41345685255
2281.05174757738
2340.78873595457
2402.3925747437
2465.22928409507
2530.83639779509
2601.87746184652
2680.08204352502
2765.82441838344
2858.79157449998
2958.38960225321
3064.53083970708
3176.88287360121
3295.1737608266
3419.24333559387
3549.01790370094
3684.50009637805
3825.73829726699
3972.87498926692
4126.11248015135
4285.72253855532
4451.92649416029
4624.92708164382
4804.90889749086
4992.20055884693
5187.33750831595
5391.39707929586
5605.81926242202
5832.53228495032
6074.38783199762
6336.51876213825
6626.11036655446
6952.22247630755
7314.45508131545
7688.30114308676
8034.05278771668