/*--------------------------------*- C++ -*----------------------------------*\
  =========                 |
  \\      /  F ield         | OpenFOAM: The Open Source CFD Toolbox
   \\    /   O peration     | Website:  https://openfoam.org
    \\  /    A nd           | Version:  12
     \\/     M anipulation  |
\*---------------------------------------------------------------------------*/
FoamFile
{
    format      ascii;
    class       volScalarField;
    location    "0.028";
    object      rho;
}
// * * * * * * * * * * * * * * * * * * * * * * * * * * * * * * * * * * * * * //

dimensions      [1 -3 0 0 0 0 0];

internalField   nonuniform List<scalar> 
54000
(
0.062185272345365
0.0615183964087108
0.0604558116707239
0.0593074373082091
0.0581868198815051
0.0570877905484497
0.0560427891288392
0.0550732070485495
0.0541748302456773
0.0533476439314871
0.0525805060430793
0.0518688465450006
0.0512024758626572
0.050576878103594
0.0499848061351644
0.049422495815851
0.0488849618644048
0.0483687306958446
0.0478791118515864
0.0474116478607895
0.0469609388812395
0.046537506299494
0.0461371083321202
0.0457512859337127
0.0453952707441053
0.0451229995191029
0.0450093516956996
0.0450475712616803
0.045215767938894
0.0454430234796949
0.0456429253921683
0.0458080080861889
0.0459538095371392
0.0460854478520387
0.0462079212174258
0.0463219300753497
0.0464364450227462
0.0465411768204768
0.0466505229238289
0.0467698762880102
0.0469043864286437
0.0470584746676027
0.0472379972928053
0.0474488767114535
0.0476950711392401
0.0479793004117598
0.0483037920334594
0.0486738223141402
0.0490935152271646
0.0495651440025643
0.0500932930451757
0.0506811140719396
0.0513283888656948
0.0520213375245264
0.0527152784696333
0.053350249360712
0.0539495490535186
0.0546045226866916
0.0553395851977979
0.0561811248877525
0.0571702910590677
0.0582601300336748
0.059478450358965
0.0607641170752779
0.0621657681823206
0.0636163761356572
0.0651877096198698
0.06680224690229
0.0685551111836337
0.0703512723257702
0.0723100350084152
0.0743122720401365
0.0765088207568909
0.0787543295781506
0.0812437290329625
0.0838000933470768
0.0866721440626111
0.0896386152855693
0.0930260660870066
0.0965754625625986
0.100745800488598
0.105251648898277
0.110600496894794
0.116616783277806
0.123013368346198
0.129140978051345
0.134904755617097
0.140308877574995
0.145507472151419
0.150505408598962
0.155415997066006
0.160312096861878
0.165091330762789
0.169888661438849
0.174629435693343
0.179373503078986
0.184033537776604
0.188659277305223
0.193159746480754
0.197582047439623
0.201838990711558
0.205985811398974
0.209958295227932
0.21382684573829
0.217540056066598
0.221148506720218
0.224667256158768
0.228010219863309
0.231265781785388
0.234361075694795
0.237314637721178
0.240043360735624
0.242577320377257
0.244862388066673
0.246946836508849
0.248793000127039
0.250449096436817
0.251898079726933
0.253212621684138
0.254398582880049
0.255517446908573
0.256558011703038
0.257557840495359
0.258531794783427
0.259454298875348
0.260359374218285
0.261193312077079
0.261943201356327
0.262556899823135
0.263050207809739
0.263401567425071
0.263653588054889
0.263814076751806
0.263922258281634
0.263980615300218
0.26404274986526
0.264124210854185
0.264265195006422
0.264481803816929
0.264747452901105
0.26504947226308
0.265349139994393
0.265605054012088
0.265801752189846
0.265959728968492
0.266062520596121
0.266157934595206
0.266257132197503
0.2664400861496
0.267237844190596
0.0621799371788943
0.0615147998947777
0.0604582247959763
0.0593094850999181
0.0581890029761868
0.0570887253785529
0.0560432772458218
0.0550731439833562
0.0541740454826333
0.0533463908787047
0.0525781446809042
0.0518664070308868
0.0511988257588393
0.0505735234544365
0.0499801527047565
0.0494187059230717
0.0488809876637779
0.0483685272562135
0.0478777134060445
0.0474074175569456
0.0469601970867397
0.0465352275027435
0.0461311100696261
0.0457463357814679
0.0453887108776422
0.0451166930906181
0.0449995586075424
0.0450457630303125
0.0452175446538285
0.045444509526229
0.045643454302257
0.045808763717404
0.0459539398447647
0.0460857666213159
0.0462072010491847
0.0463220199797668
0.0464361465015571
0.0465405394217739
0.0466493571428336
0.0467687930550942
0.0469038249871031
0.0470593320841143
0.0472408169408519
0.0474525652417825
0.0476987634418596
0.0479829793247594
0.048308297444537
0.0486789787401649
0.0490986448008133
0.0495705089848327
0.0500985887970652
0.0506862091644542
0.0513323705234551
0.0520226550027239
0.0527147970724726
0.0533527360053359
0.0539595614825359
0.054606403003451
0.0553464958843321
0.0562078494691495
0.0571957668817439
0.058302734690462
0.0595129985655238
0.0608175386729631
0.062207128341656
0.063680526457544
0.065236310531768
0.0668787532562816
0.0686122052814102
0.0704426083716734
0.0723774081738082
0.0744218063070285
0.0765889047136908
0.0788864043253584
0.0813395050749851
0.0839601892123555
0.0867874578413744
0.0898349998090019
0.0931672932971155
0.096823146357104
0.100925254147297
0.1055325352622
0.110819814325671
0.116835091516886
0.123202276147046
0.129321571291867
0.135057098248903
0.140460909034448
0.145639446629714
0.15064181652237
0.155545986635367
0.160415296147558
0.165213764139951
0.170005353164061
0.17475972446245
0.179495829714531
0.184168314645078
0.18878569905972
0.193298002957475
0.197711888258638
0.201979885119835
0.206118245153658
0.210100874606804
0.213961287211633
0.2176833080538
0.221289502341443
0.224790867390129
0.228148946005567
0.231400153323723
0.234504967302754
0.237451338447706
0.240187025887224
0.242712921660979
0.245003446113481
0.247079955673327
0.2489306655874
0.250579062103917
0.25203144235086
0.253338490085871
0.254527381993361
0.255639568012945
0.256682904188979
0.257678828871794
0.258643895629366
0.259571945348007
0.260472265470501
0.261309068903456
0.262052757997063
0.262668124287557
0.26315484594021
0.263507031821085
0.263752684746848
0.263913750194519
0.264016331366087
0.264075829475012
0.264133384098813
0.26421615460905
0.264354055708966
0.264565644006143
0.264834183992934
0.265133429609169
0.265427858189226
0.26568592960768
0.265879224170554
0.26603208344576
0.266136749568942
0.266228854969693
0.266329905303976
0.266508665623123
0.267299353635388
0.0621779774562013
0.0615104127343932
0.0604553780269785
0.0593087614919781
0.0581904527945413
0.0570897475754419
0.0560451452567741
0.0550745297497518
0.0541761948125852
0.053348089933281
0.0525805353061883
0.0518683071829573
0.0512013534997057
0.0505755838629335
0.0499828045553494
0.0494209859478484
0.0488839969129135
0.0483716058917653
0.047880673095123
0.0474106043437222
0.0469632047890953
0.0465380065432247
0.0461336929276285
0.0457483581583524
0.0453911450162232
0.045119309898912
0.0450030533695359
0.0450495855211616
0.0452220799535737
0.0454480469997541
0.0456460829104457
0.0458106544907056
0.0459550798343078
0.0460861553595477
0.0462071869030947
0.0463219605503391
0.0464362218237536
0.0465404806659778
0.0466490094401557
0.0467684696747217
0.0469039026563527
0.0470602961224079
0.0472425454409393
0.0474547643446847
0.0477010539830917
0.047985288135726
0.0483109472228513
0.0486818854555571
0.0491013856637972
0.049573305514261
0.0501010991960669
0.050688481667576
0.0513336666499212
0.0520229048245302
0.0527109941793105
0.0533475348947282
0.0539549521854319
0.0546021472861984
0.0553460765665736
0.0562141887338872
0.0572064816985505
0.0583187431828088
0.0595303084847514
0.0608390646416367
0.0622288370664174
0.0637071275021376
0.0652627906722618
0.0669114481580213
0.0686446139710762
0.0704830935993467
0.0724175173205563
0.0744725716424035
0.0766392426867452
0.078950747841451
0.0814031756964751
0.0840421055192283
0.0868684526270564
0.0899404853579469
0.0932722548365112
0.0969627235408181
0.101065784971066
0.105711366916975
0.111003743186903
0.117025032372817
0.1233835044869
0.129490203416852
0.135201861530467
0.140601304142363
0.145764262571716
0.150768662119822
0.15566762912048
0.160522831058051
0.165333415463077
0.17012161982183
0.174887438997895
0.17961985433489
0.184303433593744
0.188917028086771
0.193440051994414
0.197850111987173
0.202128132794427
0.206262480746186
0.21025428819517
0.214110877458719
0.217840985669309
0.221446569740755
0.224940755747368
0.228308715367324
0.231557606489179
0.234669849859427
0.237612231693404
0.240352885359815
0.242873613553087
0.24516743254049
0.247238640435123
0.249091685625378
0.250734761341872
0.252188170524938
0.253489886637427
0.2546794060776
0.255787198547932
0.256831252167347
0.257824497131005
0.25878445486102
0.259713828280729
0.260610670590336
0.261447770928382
0.262187067315352
0.262801455095443
0.26328317190758
0.263633668877579
0.26387454506676
0.264033938583698
0.264132730702687
0.264191429426665
0.264246315689844
0.264328607171964
0.264464643744232
0.264672994662923
0.264941224169793
0.265238180518288
0.265528680652159
0.265785651125932
0.265976035183966
0.266125008704696
0.266228791555624
0.266318807625903
0.266420268757053
0.266595334453002
0.26737636392828
0.0621749912356296
0.0615068107697514
0.0604526391138063
0.0593079234572535
0.0581917196965361
0.0570916930533732
0.0560482269787605
0.0550779019187471
0.0541805134904747
0.0533524528423753
0.0525856586797342
0.051873378377969
0.0512071547961495
0.0505813345738354
0.0499892694469051
0.0494274037561669
0.0488911396162863
0.0483787990981993
0.0478881323468851
0.0474185378363364
0.0469710171947499
0.0465458166260146
0.0461416409860743
0.0457561820893781
0.0454002220188657
0.0451297691229931
0.0450148765927657
0.0450604043870006
0.0452310981173418
0.0454554944375596
0.0456522568240363
0.0458155885196175
0.0459587960208251
0.046088727179847
0.0462090289632655
0.0463236213581392
0.0464373961677075
0.0465416262947011
0.0466495345368986
0.0467688082706661
0.0469043999576201
0.0470611016003997
0.0472434560582011
0.0474557614143207
0.0477021155608517
0.0479864148865918
0.0483122198874961
0.0486831745893239
0.0491026062001946
0.0495743955936519
0.0501020594156785
0.0506890308830912
0.0513333764868579
0.052019688640936
0.0527001942068389
0.0533313775021208
0.0539384605701549
0.0545895280024561
0.0553403660378583
0.0562138253557633
0.0572113250084752
0.058326636567693
0.059541168079781
0.0608513089671675
0.0622435267715041
0.0637231958796933
0.0652817330566017
0.0669322969821199
0.0686690991469716
0.070510409370662
0.0724496462159249
0.0745090007184587
0.0766821234350753
0.0789998766409481
0.0814606313727152
0.0841081950718808
0.0869453942676933
0.0900298816987178
0.0933767596020236
0.0970859169239881
0.101210688340839
0.105882224316741
0.111202201670911
0.117236216669339
0.123589283412867
0.129671879796845
0.135363332979468
0.140750302703746
0.145902900758078
0.150903173801592
0.155800816507965
0.160650562065888
0.165465442907198
0.170256227235512
0.175028206665566
0.179764361960081
0.18445459762203
0.189072093465098
0.193601645912755
0.19801539034107
0.202299351526492
0.206436743353971
0.210433824259109
0.214293202538165
0.218027937906727
0.221637287718978
0.225130970834208
0.228503199246058
0.231753973399409
0.23486959721955
0.237812412482066
0.24055433225222
0.243073675129086
0.245367349436839
0.247436511516809
0.249288886927878
0.250929374540773
0.25238109112718
0.253679695922379
0.25486759635585
0.255973078813239
0.257016072673261
0.258007887990606
0.258964680735022
0.259892643353331
0.26078692787326
0.261622144584296
0.262358127350847
0.262969456833655
0.263446974079877
0.263794013715624
0.264030809115573
0.264187147534363
0.264282911948711
0.26433978315687
0.264392784074292
0.264473665514936
0.264608098530877
0.264813830884122
0.265079903891482
0.265374213423437
0.265660966707386
0.265914920846654
0.266102056426883
0.266247433866512
0.26634897191165
0.266437073127114
0.266538380860183
0.266709097484555
0.267477403928745
0.0621707239693067
0.0615034985740101
0.060450891225801
0.0593076491068229
0.0581932867244261
0.0570945996480104
0.0560524744904009
0.0550829556220051
0.0541864985167619
0.0533589135375381
0.0525928468683694
0.0518809610326583
0.051215459993136
0.0505900393359209
0.0499986695299218
0.0494371296845419
0.0489014675886371
0.0483894289387751
0.0478992267709803
0.0474301744851821
0.0469828722137025
0.0465580079870813
0.0461543759406704
0.0457696981626903
0.0454158677519988
0.0451478590681723
0.0450343092230927
0.0450777867070243
0.0452450919731149
0.0454671706123431
0.0456622786418708
0.045824054456082
0.0459657530632785
0.0460944065654851
0.0462138031584019
0.0463278398674139
0.0464402865885154
0.0465442130790283
0.0466511966660117
0.0467699114506078
0.0469052709781415
0.0470617673534842
0.0472439132422663
0.0474560850184581
0.0477024187233973
0.0479867540276729
0.0483126195779872
0.0486835660724262
0.0491029934332961
0.0495747089820407
0.0501023311947931
0.0506888892690088
0.0513313131930008
0.0520113244125198
0.0526808195693397
0.0533042662739668
0.0539110935400748
0.054569327211397
0.0553293848862396
0.0562110080889238
0.0572146133477642
0.0583332754863235
0.0595511413890266
0.0608627775924144
0.062257866628467
0.0637389833689938
0.0653010198970466
0.0669535796463543
0.0686949639817545
0.0705392832776413
0.0724848148315969
0.0745488606989136
0.0767307143474474
0.0790553809738302
0.0815277255850103
0.0841848437104928
0.087037500483509
0.0901358210469131
0.0935044467783625
0.0972342088300091
0.101390000613085
0.106092114882656
0.111451499703266
0.117501907495909
0.123846848061233
0.129896450285254
0.135564530740433
0.140933744550853
0.146075103191762
0.151068418339072
0.155964566645205
0.160812854918051
0.165630716425786
0.170426416129603
0.175204160538274
0.17994713723831
0.184644200262646
0.189268822092008
0.193805117554885
0.198225540828653
0.202515475771753
0.20665848614587
0.21066074366572
0.214525242618175
0.218264627939027
0.221879008543888
0.225375314367774
0.228751038006267
0.232004889259008
0.235123123525162
0.23806741768469
0.240809609415295
0.243328163121635
0.245620561094231
0.247688114843257
0.249538802004249
0.251176990834995
0.252625921070264
0.253921538656425
0.255106963928404
0.256210479278965
0.25725189332018
0.258242314628952
0.259196582330567
0.26012209777838
0.261013535658095
0.261845732653375
0.262578079799719
0.263185107386965
0.263657924168637
0.264000392725608
0.264232696719541
0.264385129755231
0.26447771527133
0.264532250476083
0.264583359638675
0.264662386110162
0.264794859097985
0.264997809411205
0.265260652340514
0.265551369517193
0.265833765532189
0.266083461448888
0.266266435738178
0.266407798895785
0.266506320124287
0.266592168824504
0.266693127484339
0.266858404887226
0.267611038036481
0.0621647185084143
0.0614998781023961
0.0604500692202166
0.0593082311436161
0.0581956250559328
0.0570986469584634
0.0560580894276991
0.0550897157423141
0.0541942740259601
0.0533674394070798
0.0526021820571975
0.0518909807176676
0.0512262834493182
0.0506015332803309
0.0500109065502175
0.0494499259517635
0.0489148923881576
0.0484033739243375
0.0479137370064069
0.0474452807271741
0.0469984815107167
0.0465742025033713
0.0461714255983901
0.0457882422343399
0.0454372650287405
0.0451724105457201
0.0450602332136362
0.0451011553558019
0.0452641013444335
0.0454831116454583
0.0456761688177147
0.0458361017730199
0.0459760571551679
0.0461032358848043
0.0462214423066939
0.0463344031668318
0.0464448768517558
0.0465479558642323
0.0466539117994803
0.0467717218077221
0.0469064101914708
0.04706238594191
0.0472441684662666
0.0474561407775453
0.0477024225653764
0.0479867581231876
0.0483126517836048
0.0486835972047576
0.0491030392499832
0.0495747424140049
0.0501022905789563
0.0506879490834583
0.0513268539235008
0.0519979256366351
0.0526531127810413
0.0532675695840442
0.0538754704983761
0.0545434833827457
0.0553151327527307
0.0562067977843285
0.0572182800296824
0.0583414176696668
0.0595631079387663
0.0608770662756043
0.0622754263193749
0.063758926945325
0.0653249903939972
0.0669807371844889
0.0687274820877526
0.0705764037662368
0.0725294520187949
0.0746004021769012
0.0767928815552096
0.0791274990296197
0.0816141550293573
0.0842848340623129
0.0871568234853118
0.0902744634921754
0.0936705584715639
0.097428621057334
0.101623469213134
0.106366404642149
0.111775769374263
0.11784488112607
0.124175137675234
0.130183359884119
0.135821497131667
0.141167389925801
0.146293826841204
0.151277830940196
0.156171244480914
0.161019463956975
0.165841086498891
0.170643316963717
0.175428308378132
0.180180156241036
0.18488577542277
0.189519598718181
0.194064232735949
0.198493171547472
0.202790340558132
0.206940421798296
0.210948861366369
0.214819811732825
0.218564822334057
0.222185103871048
0.225685703418376
0.2290654846889
0.23232316120787
0.235444265984316
0.238390405588835
0.24113259524402
0.243650219515247
0.24594078238764
0.248006485093442
0.249854959443839
0.251490519664573
0.252935944286361
0.254228105157493
0.255410506576621
0.256511890124882
0.257551479097997
0.258540252872277
0.259491957788367
0.260414376687448
0.261302300250925
0.262130551826785
0.262858425372264
0.263459992001324
0.263927067720829
0.264263872217217
0.264490795414768
0.264638473810089
0.264727332551662
0.264779064771817
0.264827960016027
0.264904720518506
0.265034657165954
0.265234209606169
0.265492844197494
0.265778804919591
0.266055753656844
0.266299993190967
0.266477649876193
0.266614137248801
0.266708911483623
0.266791986260737
0.266892411523271
0.26705121850613
0.267785290588902
0.0621577070427613
0.0614951626882095
0.0604497422232771
0.0593099026123432
0.0581992113762823
0.0571041752709434
0.0560653720582625
0.0550983912329297
0.0542041269803039
0.0533782895728457
0.0526140242109673
0.0519037585068705
0.0512400204527505
0.0506161467033634
0.0500263771167501
0.0494661411453147
0.0489318485875061
0.048421016496586
0.0479320521595756
0.0474642875345175
0.047018187923161
0.0465946849011262
0.0461930250748892
0.0458118757604194
0.0454644197495082
0.0452033509126748
0.0450926905182812
0.0451306034899547
0.0452882735834532
0.0455034866662718
0.0456940745070122
0.0458518284210661
0.0459897305372388
0.0461150941176978
0.0462316967968908
0.0463430204176833
0.0464510132746131
0.0465526988482153
0.0466574563046519
0.0467740914327504
0.0469078001794877
0.0470630460235424
0.0472443422058438
0.0474560535677797
0.0477022185182114
0.0479864979460244
0.0483123839459558
0.0486833336451092
0.0491028112651239
0.0495745152297744
0.050101771676972
0.0506857583402811
0.0513198132230306
0.0519794621725245
0.0526177343616598
0.0532221560608582
0.0538331830661872
0.0545134864507629
0.0552992286447347
0.0562032272250271
0.0572236459530727
0.0583524723416013
0.0595787057684583
0.0608960020150961
0.0622982488741719
0.0637852907348454
0.0653561649950738
0.067016590776055
0.068769796956984
0.0706253285240983
0.0725875237356778
0.0746681393210585
0.0768736165115492
0.0792219431759301
0.0817262557933039
0.0844155241724692
0.0873115832640636
0.0904555044016069
0.093886005799965
0.0976822530569161
0.101925341198196
0.10672158315792
0.112191992563312
0.118284586993269
0.124588637443301
0.130545514234092
0.136144593058054
0.141460293226053
0.146566978602864
0.151539213705828
0.156428783476067
0.161277716453183
0.166104552612345
0.170915247800708
0.175709841659499
0.18047287811539
0.185189481409596
0.189834711528055
0.194389855886802
0.198829217482062
0.20313538030346
0.207294014432543
0.211310097242067
0.215188880558463
0.218940887118183
0.222568175884823
0.226074442821924
0.22945923390378
0.232721562950119
0.235846203625111
0.238794532010515
0.241536668917527
0.244053068400347
0.246341360864801
0.248404783550455
0.250250610530496
0.251883012576383
0.253324221291106
0.254612209376102
0.255791018412282
0.256889903747069
0.25792741061477
0.258914177451302
0.25986293611793
0.260781558518468
0.261665084875563
0.262488391708621
0.26321067757673
0.263805459778745
0.264265418603237
0.264595271254855
0.264815623018011
0.264957522245845
0.265041865015688
0.265090216745343
0.265136406786899
0.265210388216274
0.265337083654018
0.26553236136178
0.265785670193788
0.266065539173806
0.26633564075885
0.266573046560764
0.266744029606977
0.266874491705983
0.266964643884598
0.267044316949349
0.267143889664793
0.267295530049367
0.268008359709093
0.0621510068244083
0.0614887893759687
0.0604494459231443
0.0593125889939558
0.0582043779753635
0.0571115816741373
0.056074676858771
0.0551092628291857
0.0542163776818786
0.0533918171764484
0.052628809208488
0.0519197494893749
0.0512571772630774
0.0506343838387263
0.0500456332835598
0.0494863286980662
0.0489529308624826
0.0484429449535518
0.0479547956643917
0.0474878609936328
0.0470426292558943
0.0466200882669263
0.046219821123773
0.0458412334635
0.0454980527977081
0.0452414614612822
0.0451324778974117
0.045166706755797
0.0453179674875204
0.0455286288709129
0.0457163092105768
0.0458714790869551
0.0460069156349452
0.0461300192187592
0.0462445232604072
0.0463536151856023
0.0464586641724046
0.0465584562210316
0.0466617460629494
0.0467769725046737
0.0469094787936932
0.0470638146479167
0.047244474040366
0.0474557699316493
0.0477016555163476
0.0479857751745007
0.048311599943021
0.0486825552086002
0.0491020939716392
0.0495737596836566
0.0501004219109913
0.0506819920735062
0.0513095160201933
0.0519544867940029
0.0525739385606036
0.0531681725465731
0.0537851082735515
0.0544804857340345
0.0552827669138201
0.0562015827698129
0.0572317032913555
0.0583673442806155
0.0595989855784014
0.0609206695847495
0.0623276305538538
0.0638194409654517
0.0653962023062832
0.0670629354918414
0.068824111129664
0.0706884969690982
0.0726620357464106
0.0747554502415854
0.0769770204254937
0.0793432911937049
0.0818695503916533
0.0845831981323513
0.0875094158528852
0.0906877629267517
0.0941614415142546
0.0980073962137927
0.102309483186163
0.107173357685876
0.112715999937247
0.118842393615151
0.125099611865832
0.130992120658744
0.13654056915744
0.14181804934387
0.146899931156569
0.151858196517706
0.156743523962772
0.161594504197668
0.16642872187151
0.171250540068118
0.176057805957322
0.180835002586396
0.185565601576392
0.190224944257489
0.194793231649323
0.199245323771042
0.203562618145621
0.207731599723767
0.211757121378264
0.215645419035778
0.219406087768056
0.223041798438346
0.226555200443303
0.229946151425173
0.233214100803292
0.236343132794649
0.239294073143561
0.242036157739215
0.244550976618971
0.246836522877134
0.248897130030987
0.250739817063654
0.252368403035847
0.253804556175355
0.255087463138157
0.256261971535029
0.257357849722349
0.258392916368364
0.25937721985541
0.260322436900224
0.261236382643781
0.262114414695034
0.262931585786054
0.263646935109953
0.264233355130426
0.264684521264623
0.265005868300031
0.265218197801214
0.265353069182708
0.265431904499952
0.265476150146273
0.265519009801259
0.265589562772101
0.265712182792562
0.265902117866163
0.266148776383686
0.266421013195193
0.266682611641386
0.266911565101023
0.267074297090284
0.267197357104048
0.267281828025143
0.267357374252906
0.267455562392674
0.26759992100206
0.268289361519492
0.0621448325531873
0.0614809878557228
0.0604489375338663
0.0593160556296069
0.0582112987171221
0.0571212435575865
0.056086376521022
0.0551226555019763
0.0542313890882918
0.0534084477919575
0.0526470377884658
0.0519394894954647
0.0512783266682125
0.0506568339315365
0.0500692994752871
0.0495111286724695
0.0489788077150555
0.0484698452866102
0.0479826869299616
0.0475167569166992
0.0470725757833596
0.0466512116088599
0.0462526667520262
0.0458772456386252
0.04553922846595
0.0452878813239999
0.0451807007832138
0.0452102720635907
0.0453536701546409
0.0455589671707088
0.0457432877964546
0.045895404103323
0.0460278787101327
0.0461482052283656
0.0462600495949807
0.0463662723632314
0.0464679165197788
0.0465653356559157
0.046666824367739
0.0467804015268249
0.0469114992197159
0.047064737256205
0.0472445811727509
0.047455277013632
0.0477007338382587
0.0479845843625464
0.0483102839644262
0.0486812295698653
0.0491008191971117
0.0495723595376452
0.0500980605485271
0.0506761545653372
0.0512944182141485
0.0519199689468264
0.0525195131309606
0.0531056173382882
0.053732268185496
0.0544458766418606
0.0552669455572748
0.0562015792027643
0.0572431766806298
0.0583868761084488
0.0596248782424065
0.0609520309492624
0.0623647266624846
0.0638626436991771
0.0654466715584676
0.0671215565625466
0.0688926634673861
0.070768512415371
0.0727562487472282
0.0748661686173557
0.0771078379755638
0.0794970408565316
0.082050671752504
0.0847955817958933
0.0877596890066351
0.0909822183681321
0.0945099272147229
0.0984188317728196
0.10279279305328
0.107740600927673
0.113365781677929
0.119533343133936
0.125716550656845
0.13152893916694
0.137013610780507
0.142244556691637
0.147297154160192
0.152240188832691
0.157122090572246
0.161977603402219
0.166822448902281
0.171659015896161
0.176482835693908
0.181277918497649
0.186026148836263
0.190702881320116
0.195287421474854
0.199755003765368
0.204085937863089
0.208267402398216
0.212304473450809
0.216204296258386
0.219975574225236
0.223621398816235
0.22714358307635
0.230542010496751
0.233816669029973
0.236951054808083
0.239905082535364
0.242647082631033
0.245159873325172
0.247442074591589
0.249499194875738
0.251338122092282
0.252962087730683
0.254392152016519
0.255668852715178
0.256838158020898
0.257930367448561
0.258962504089442
0.259943765794032
0.260884663040015
0.261792831728226
0.26266402303024
0.263473612326264
0.264180419064495
0.264756600924796
0.265196978736252
0.265507971106017
0.265710566079016
0.265836924648557
0.265909058795577
0.265948318040627
0.265987086401792
0.266053413947412
0.266170972279488
0.266354304141417
0.266592752141834
0.266855567386186
0.267106740302643
0.267325360389904
0.267478015966042
0.267592075484297
0.267669619608884
0.267740209128931
0.267836226329041
0.267974008726103
0.268639161714167
0.0621374089441754
0.0614728367669808
0.060448650920682
0.0593203966245661
0.058220163013417
0.057133477179438
0.0561008091403597
0.0551389297350985
0.0542496031095859
0.0534287091374579
0.0526693044599792
0.0519636065259232
0.0513041255017612
0.0506841764648351
0.0500980855477029
0.0495412723230706
0.0490102365557467
0.0485024987687308
0.0480165347051642
0.047551815961245
0.0471089035742662
0.046688986282437
0.0462925813889928
0.0459210381961921
0.0455891621561724
0.0453438384369453
0.045238555742555
0.0452622103426973
0.0453959447388643
0.0455949920866989
0.045775471819688
0.0459240032516487
0.0460529536520962
0.046169923325249
0.0462784799257406
0.0463811541743116
0.0464789177892834
0.046573485417883
0.0466727957474937
0.0467844522687119
0.0469139161292178
0.04706585026121
0.0472446884745481
0.0474546150956249
0.0476995161498487
0.0479830009929588
0.0483085122925727
0.0486794190232954
0.0490990185329516
0.0495702694615296
0.0500944066082093
0.0506672785768067
0.0512721999200136
0.0518730647764075
0.0524525894237144
0.0530352491244947
0.0536764146484721
0.0544116406247579
0.0552540018709494
0.0562045997447979
0.0572590963903334
0.0584120804649252
0.0596574964157155
0.0609912958744617
0.0624109600109536
0.0639165289920999
0.0655095613799262
0.0671948081423014
0.0689783623312508
0.0708688559445319
0.0728744484578285
0.0750054195007587
0.0772723265950426
0.0796906110258691
0.0822784509249487
0.0850630282436056
0.0880747350984285
0.0913532968061495
0.0949482172870735
0.0989349524808181
0.1033966060616
0.108447032604745
0.114162418217245
0.120359534746897
0.126442010100494
0.132157299198697
0.137565421202925
0.142742544634427
0.147762974481911
0.152691310758628
0.157572408347372
0.162436522354517
0.167296626944696
0.172152724226055
0.176997912869566
0.181815418894443
0.186585585127625
0.191283574719368
0.195887973359655
0.200374263641393
0.204721716603745
0.208918128485462
0.212969168158582
0.216882856539141
0.220666968523654
0.224324848975931
0.22785764611786
0.231265013692165
0.23454756353734
0.237688330167055
0.240645930704965
0.243387721204763
0.245897889314236
0.248175961790307
0.250228735699987
0.252063107676845
0.253681468687967
0.255104173551286
0.256373283149581
0.257536247610177
0.258623946044629
0.259652510175684
0.260630002495936
0.26156560202559
0.262466638671754
0.263329346126402
0.264129598800474
0.264825958028829
0.265389687389959
0.265816920320707
0.266115384668253
0.266306255088139
0.266422368206454
0.266486388478829
0.266519619336592
0.266553384694632
0.266614527869604
0.266725856864763
0.266901097574135
0.267129504404226
0.267380815959698
0.267619337738129
0.267825455464206
0.267965935392542
0.268069156107342
0.268138334981454
0.26820301405228
0.268295837343909
0.268428588129665
0.269071065466202
0.0621270653899129
0.0614649796370384
0.0604491186985398
0.0593262562638061
0.0582313709779058
0.0571485167753515
0.0561182339188048
0.0551584987678023
0.0542715932001496
0.0534532715304063
0.0526963255863236
0.0519928396651575
0.0513353388928672
0.0507172056215776
0.0501328176531399
0.0495776118386829
0.0490480960015119
0.048541808851063
0.0480572665858633
0.0475939946588396
0.0471526135403192
0.0467344946609083
0.0463407851154424
0.0459739781239386
0.0456492360856031
0.0454105362776862
0.0453071345606036
0.0453234497514816
0.0454454869219738
0.0456372795612895
0.045813329380241
0.0459576807661659
0.0460824954847482
0.0461954669175772
0.046300038689046
0.0463984502959017
0.0464918367958539
0.0465830662668895
0.0466797858689626
0.0467892123316736
0.0469167886878583
0.0470671960856131
0.0472448342363848
0.0474538348370003
0.0476980646438306
0.0479810980906334
0.0483063631375983
0.0486771908298577
0.0490967092155514
0.0495673313594746
0.050088786122169
0.0506535498878041
0.0512393480566959
0.0518121755659328
0.0523731489583626
0.0529593316808801
0.0536203419359836
0.0543804525951396
0.055246669654268
0.0562133959884927
0.0572810007344008
0.0584442851238831
0.0596983059130239
0.0610401043772201
0.062468242059883
0.0639833300816566
0.0655875720531367
0.0672859320751831
0.0690851702736542
0.0709943016145438
0.0730224334642602
0.0751801236864332
0.0774787821557422
0.0799338385342883
0.0825645575055874
0.0853991697639048
0.0884705721784349
0.091819493681741
0.0954974085619771
0.0995784575966428
0.104147770127891
0.109322018278172
0.115130565761214
0.121318892174311
0.127272913239404
0.132874372477189
0.138195247895487
0.14331398314218
0.148302311830934