/*--------------------------------*- C++ -*----------------------------------*\
  =========                 |
  \\      /  F ield         | OpenFOAM: The Open Source CFD Toolbox
   \\    /   O peration     | Website:  https://openfoam.org
    \\  /    A nd           | Version:  12
     \\/     M anipulation  |
\*---------------------------------------------------------------------------*/
FoamFile
{
    format      ascii;
    class       volScalarField;
    location    "0.028";
    object      T;
}
// * * * * * * * * * * * * * * * * * * * * * * * * * * * * * * * * * * * * * //

dimensions      [0 0 0 1 0 0 0];

internalField   nonuniform List<scalar> 
54000
(
96.7409481003131
97.2730196404389
98.4991676897404
100.012318979706
101.672166452347
103.341672852347
104.953387776887
106.47310214365
107.886564830039
109.190979600788
110.392373909451
111.498897580142
112.522484707906
113.473197900861
114.363113247314
115.20096114568
115.997058607448
116.757526280348
117.493393859296
118.205694971846
118.901101145472
119.588910055951
120.269075636156
120.945067228859
121.608809023065
122.241231269872
122.833503762986
123.412658284942
124.030118972085
124.736601112112
125.551045888741
126.466433958872
127.476613551288
128.577028526514
129.764596146411
131.037477164251
132.395628150276
133.836696844677
135.35935172588
136.960643184507
138.637395748654
140.386536025354
142.205352689739
144.091483270236
146.042854110122
148.057641982476
150.134119794413
152.270805987316
154.466271058787
156.718786257613
159.026810653651
161.38834246441
163.801537908828
166.263719498066
168.771290858155
171.359226828574
174.091119959667
176.992289174378
180.021949425503
183.103004877954
186.189719156715
189.234147190695
192.220200485922
195.12888269806
197.963430043097
200.710117127862
203.374642067033
205.939386905931
208.408207802759
210.75795144045
212.990906204813
215.078540360755
217.022446103755
218.789384857049
220.381818407643
221.763653252924
222.939454026464
223.869824455335
224.560940220611
224.968778711949
225.102160488103
224.969028685856
224.599267166001
224.024522474551
223.346679062133
222.544581038918
221.641427491355
220.675039733769
219.668391005063
218.627258722542
217.556057109505
216.448108291324
215.293852248306
214.092700446089
212.833854725774
211.516845310946
210.13650159347
208.69696316699
207.198073439709
205.648389414598
204.051793577539
202.421918956324
200.768597294152
199.10718819719
197.443769343255
195.788270816801
194.143512237493
192.511099929102
190.895894728764
189.289960589727
187.686919224138
186.07692061712
184.460229352987
182.837476266235
181.216049708038
179.598195120638
177.988749418558
176.391990980533
174.820326418912
173.283556515228
171.790024327164
170.340357592324
168.9368686229
167.581043183442
166.274949964541
165.017559257617
163.795651955686
162.591577365666
161.388161714733
160.180493163336
158.971280417648
157.770381634473
156.588196202358
155.435824974102
154.323019711419
153.256322385003
152.237460354123
151.266546259349
150.336781672421
149.435735862037
148.551166013745
147.672780928108
146.797438260582
145.925368565484
145.062673268228
144.213224068073
143.384336799722
142.573713511604
141.816413490049
140.806299049225
96.7356359479935
97.2684542421465
98.492550643839
100.00185157913
101.66142616915
103.331304625949
104.942331085529
106.462180192525
107.874905280742
109.179503713913
110.380080937165
111.486754910691
112.509498075744
113.460395396043
114.349573351433
115.187730165222
115.9833873059
116.744756077133
117.479213743848
118.191728487901
118.888230598916
119.574817763012
120.255272060399
120.931698923615
121.595207883678
122.227244606991
122.821741547213
123.403335991981
124.020458136223
124.727188532326
125.541930565351
126.457550388458
127.46792446087
128.568520648086
129.756247865133
131.029354503481
132.387734048361
133.829045822069
135.351936642789
136.953448180672
138.630407333633
140.379769227247
142.198818077165
144.085168818839
146.036756344615
148.051766106007
150.128499934399
152.265463075556
154.461185924438
156.714005483137
159.022309498569
161.384179025213
163.797685012389
166.260315938535
168.768289328088
171.357522173153
174.094149253809
176.998109230926
180.025954822249
183.108201547901
186.192593504634
189.236647496908
192.219896100557
195.128803268142
197.960551691938
200.707774668728
203.369102131546
205.934325427737
208.399161440041
210.749070960165
212.976881268525
215.064131379037
217.00136451481
218.767049935436
220.35105246516
221.730553861818
222.895983474929
223.822875988634
224.501671440181
224.905555261944
225.025930728127
224.890893290822
224.514051895636
223.941947084871
223.2708125626
222.47183953753
221.571103068099
220.60698932258
219.601592187295
218.561641566491
217.490567728795
216.382680792025
215.228649357746
214.026747558536
212.767600834824
211.449774346657
210.069143799714
208.628921654372
207.12995100349
205.579872895021
203.983502461467
202.353587371243
200.700845397933
199.039776214816
197.377233760821
195.72225494753
194.078340833527
192.447055097813
190.832541158393
189.227716869502
187.625519269779
186.016714286508
184.400997166782
182.779544087045
181.159243979717
179.542806583536
177.934612535216
176.339294127712
174.768876027554
173.233520838963
171.741250346175
170.292990575768
168.890671927375
167.536025928891
166.231038092742
164.974521606478
163.753621565983
162.550475474947
161.348097728403
160.141381710477
158.93319818805
157.73329864758
156.552155439798
155.400810524127
154.289033215589
153.223265071899
152.205370421705
151.235236783144
150.306263345728
149.405953625087
148.52196201672
147.644200229972
146.769479036786
145.897990497503
145.035969013588
144.187224895978
143.359034096375
142.549175688566
141.792337373132
140.782827404813
96.7290749330317
97.2603353166393
98.4820826010801
99.988373561924
101.646788200085
103.315877328375
104.92642484274
106.445571378318
107.857806857289
109.161720323164
110.361723387304
111.467690249118
112.489829753437
113.440129759041
114.328837461635
115.166628323924
115.962004051865
116.72326956765
117.457195751984
118.169762644603
118.866546280292
119.552858539574
120.233551692802
120.910259293797
121.573947621472
122.206514238733
122.802899936898
123.386463632944
124.004278132508
124.711628642854
125.526879177927
126.442873531668
127.453572923639
128.554449134542
129.742472949001
131.015926627183
132.374681421218
133.816404497328
135.339676306231
136.941550464277
138.618853731016
140.368560600831
142.187960280665
144.074670030514
146.026624427998
148.042011494039
150.119157870637
152.256564268308
154.45271624264
156.706020014415
159.014785050481
161.377185749395
163.791199469427
166.254516486023
168.763345123868
171.355829685873
174.098579123996
177.006218187288
180.033637286615
183.11539816902
186.197113163233
189.239081173173
192.219415172344
195.12680057549
197.955849446733
200.701721332817
203.359990414601
205.92342827068
208.384285682168
210.731466315484
212.953867337293
215.036940858904
216.966821320097
218.726424282081
220.300702963782
221.671869798065
222.824908068457
223.741029487763
224.404873539595
224.796501513208
224.901870278418
224.759310071008
224.376341871264
223.808932153267
223.146816033479
222.352853099673
221.456027682298
220.495575590943
219.492246146155
218.454156846371
217.383413849839
216.27560104071
215.121743876364
213.918747929032
212.659040056994
211.3399645069
209.958796873069
208.517542663927
207.018373370941
205.467733852052
203.871669329316
202.24176693229
200.589915680472
198.929477652306
197.268312537016
195.61428362043
193.971726229142
192.342199840859
190.728904189739
189.12585074781
187.525079415642
185.91818572114
184.304093051484
182.684729963902
181.066290176667
179.452140265676
177.846004142773
176.253017687576
174.684648364408
173.151584551393
171.661389699965
170.215409399516
168.815032774507
167.462282066909
166.159097260169
164.904035643943
163.684773474152
162.483152552897
161.28246930771
160.077303658339
158.870804715767
157.672518018145
156.493086139205
155.343392891354
154.233307855254
153.169071034752
152.152734776338
151.183920742824
150.256220106029
149.357115043251
148.474100037534
147.597335525006
146.723640137255
145.853109353111
144.992166075992
144.144585128784
143.317536794439
142.508917807725
141.752882265377
140.744372635017
96.718010179899
97.2481214829462
98.4675623897615
99.9705894399375
101.62667723963
103.294049836029
104.903523000561
106.421576008207
107.833003433388
109.135924074377
110.33507246344
111.44000296827
112.461300585819
113.410713123854
114.298792533164
115.135963772772
115.930909927723
116.691790817048
117.425408843708
118.137937310237
118.834810733369
119.521215568702
120.202219074001
120.8792657402
121.54347589906
122.177168124508
122.775640126523
123.361453446932
123.980696948664
124.689021199636
125.504996068851
126.421544063893
127.432700808405
128.53399299293
129.722444998788
130.99640916207
132.355680666516
133.79800792042
135.321823099127
136.924218374815
138.602017361258
140.352213367411
142.172108271005
144.059329486393
146.011815299526
148.027755495426
150.105494521563
152.243523497445
154.440312825437
156.694288912662
159.00373945586
161.366865831203
163.781633514956
166.24587256227
168.756201436969
171.354005165593
174.104961093257
177.01747130725
180.0451193003
183.125206830976
186.203448266211
189.241931622661
192.218669621089
195.123197838716
197.949060436362
200.692185269023
203.346829437735
205.90676682847
208.362758150399
210.704943075098
212.920502760428
214.996353917392
216.916683463982
218.666167217035
220.227571094253
221.585215134848
222.721630639525
223.620584541013
224.26425991398
224.63655173856
224.722304941065
224.56778408832
224.178185395238
223.617541606671
222.96756136425
222.180372248433
221.289450941767
220.333904986908
219.333845907743
218.298083347977
217.228157403202
216.120404699099
214.966368801289
213.762146481127
212.501324900203
211.180756959378
209.798522295294
208.356083042385
206.856352186744
205.305197226354
203.709319475376
202.079718076288
200.428919752005
198.769660818791
197.11026535164
195.457886372813
193.817262895296
192.190047375069
190.57876500901
188.97809845436
187.379590032725
185.77530069231
184.16373659096
182.547257257083
180.93166313422
179.320701085504
177.717678415413
176.127967919105
174.562684034585
173.032847561614
171.545756882037
170.102988827632
168.705526740746
167.355493011024
166.054842630916
164.801978962247
163.585022941648
162.385681171384
161.187401789741
159.984540404331
158.780442269903
157.584529370578
156.407545356902
155.260263434305
154.152599486192
153.090616058129
152.076485852636
151.109637222546
150.183761801306
149.286361901455
148.40481711068
147.529482524953
146.657250721923
145.788148813414
144.928751777286
144.082839771604
143.257465242803
142.450609729911
141.695790906545
140.6887082377
96.7010924739809
97.230497360829
98.4477523755104
99.9473374775582
101.600150759896
103.264853815114
104.872473722194
106.388991635312
107.799189324558
109.100791943462
110.298693391961
111.402265200424
112.422376183529
113.370638445526
114.257826543846
115.094173030194
115.888504581928
116.648874045764
117.382183683527
118.094609962333
118.791551615612
119.478210458714
120.15962019103
120.83714876646
121.502201359674
122.13755003879
122.738597857016
123.327300302173
123.948632816933
124.6582896328
125.475242043977
126.392538788113
127.404311866157
128.506170508878
129.695208285712
130.969864360024
132.329828445714
133.772959245015
135.297513736642
136.900610255545
138.579077835384
140.329931731196
142.150491535333
144.038399452453
145.991602316895
148.008294672919
150.086833597428
152.225700359056
154.42335912914
156.678237227707
158.988619917399
161.352713051829
163.768499126306
166.233918013375
168.746693497413
171.352270068722
174.113921932011
177.032562540802
180.060729754128
183.1380745368
186.211728972769
189.245361292549
192.217503725224
195.117937837695
197.939753214585
200.678833849535
203.328846589548
205.883634923669
208.333326362361
210.668243340266
212.874836976114
214.940304518051
216.848008209166
218.583073128401
220.127360029129
221.46585466007
222.580099940184
223.454890575725
224.071717705146
224.417057248858
224.477687737222
224.306765564951
223.910271412589
223.359705519566
222.725070391214
221.94671990453
221.063749603938
220.114598026279
219.118993369843
218.086166630546
217.017441433807
215.909707907574
214.755176598404
213.549435836092
212.286984310662
210.96452441901
209.580735856825
208.136826722663
206.636238742299
205.084521078125
203.488810215174
201.859749856073
200.210301512752
198.552769184967
196.895696161888
195.245694327789
193.607691843988
191.983495983745
190.375070686748
188.777581081032
187.18223818058
185.581422266792
183.973375222952
182.36075433936
180.749094165315
179.142405516955
177.543673283498
175.958367396343
174.397331691066
172.871832180379
171.389000911474
169.950544049753
168.55708949221
167.210731948061
165.913470661493
164.663637347059
163.449776058346
162.25356366255
161.058522152131
159.858819748045
158.657958195534
157.465284557772
156.291602174411
155.147597614267
154.043195441458
152.984285967132
151.973114979761
151.008962079704
150.085554986087
149.190438782061
148.310922677995
147.437524244351
146.567261660496
145.700125353431
144.842818556471
143.999155272297
143.176059227209
142.371570469879
141.61845857985
140.613314488753
96.6772369487826
97.2061695721584
98.4214117812125
99.9174672005154
101.566192438053
103.227297714505
104.832222333273
106.346646710763
107.755111631541
109.054981341505
110.251178354771
111.353011571599
112.371544534127
113.318353017396
114.204342070837
115.039637277981
115.833151142611
116.592886745099
117.325814598167
118.038087190282
118.735113543321
119.422120277679
120.104047686067
120.782244488258
121.448473014695
122.086033148274
122.690327097842
123.282750515795
123.906856135418
124.61824191731
125.436458214025
126.354721567854
127.367292144954
128.469887588042
129.659692283335
130.93524226907
132.296109732981
133.740259691173
135.265773728729
136.869774533336
138.549107422514
140.300812784269
142.122232830167
144.011028936005
145.96516099874
147.982831903648
150.062408167816
152.202362070252
154.401153043014
156.657200672112
158.968794071045
161.334138353629
163.751230959734
166.218015255633
168.734781002783
171.351222051215
174.126182547327
177.052116283813
180.080797946009
183.154297025336
186.222016179705
189.249349568828
192.215660029986
195.110711048655
197.927343038808
200.661005539421
203.30503156345
205.852879608679
208.294372524951
210.619494818284
212.81437061275
214.865878086933
216.757045912586
218.472775970302
219.994627195647
221.307500104477
222.392703932039
223.235302387515
223.817171398328
224.127060499662
224.156664484719
223.964840207953
223.562172741868
223.026795810782
222.410273878854
221.642995343672
220.770145071987
219.829020531729
218.839100600692
217.809863382996
216.742676869165
215.634892951816
214.479491458633
213.271841335797
212.007191243969
210.68235723198
209.296494615491
207.850779816975
206.34904043419
204.796705377466
203.201185028333
201.572945923467
199.92523440866
198.270064737752
196.615991359731
194.969201546551
193.334653513844
191.714313044303
190.109709356815
188.516332295914
186.925194919403
185.328879034545
183.725490225158
182.117873579683
180.511400703445
178.910252998864
177.317166145117
175.73758219599
174.182132834129
172.662260238549
171.185011757109
169.752139215709
168.363941660559
167.022376959402
165.729491726399
164.483637570409
163.273783511985
162.081673814543
160.89083723039
159.695275374899
158.498616705165
157.310175718487
156.140779173002
155.001045019152
153.900869708572
152.845970566182
151.838628360698
150.878002075652
149.957807277376
149.065641330346
148.188789717119
147.317916179566
146.45020560241
145.585648795387
144.731062149171
143.890312010655
143.070183503222
142.268752451626
141.517935005856
140.515333224941
96.6460716879881
97.1738864120193
98.3871923120492
99.8794879533869
101.523506410755
103.180199055526
104.781589410994
106.293239856728
107.699353160253
108.996950205106
110.190912695705
111.290557290825
112.307083498768
113.252084420893
114.136536665015
114.970520148204
115.762995623105
116.521952974459
117.254399267378
117.966474573459
118.663613177533
119.351048868588
120.033625703962
120.712712219059
121.380492826926
122.020894238585
122.62925471103
123.226372626382
123.853995329527
124.567552285872
125.38735255309
126.306825655946
127.32039783472
128.423923572255
129.614702053551
130.891370742726
132.253384963122
133.6987923558
135.225507534126
136.830639338516
138.511058467989
140.263834619918
142.086337886023
143.976253428376
145.931558585454
147.950467287355
150.031353372215
152.172680900706
154.372902697822
156.630426785429
158.943547115941
161.310469569524
163.729186619843
166.197288645842
168.720591172591
171.351983679741
174.142611048979
177.076744325269
180.105631259926
183.174025498398
186.234269806058
189.253738327203
192.21278101917
195.10103387057
197.911096873194
200.637788852894
203.274132141022
205.812972040913
208.243885639872
210.556258553762
212.735987106006
214.769325229618
216.639116401863
218.329706151365
219.822581554667
221.102192847885
222.149979109485
222.951007579459
223.488262021052
223.753166623146
223.746091307201
223.528937467232
223.1226493706
222.610081294775
222.013062958145
221.259197705384
220.398718820598
219.467350416635
218.484358133486
217.45936488907
216.393981907579
215.28601973648
214.129299026013
212.91923959762
211.651755968913
210.323983400771
208.935492216788
207.487594238519
205.98441907751
204.431419806515
202.836173205238
201.209095618791
199.563620242839
197.9115617941
196.261316364378
194.618705667758
192.98860986419
191.373121748575
189.773446795102
188.185288499858
186.599556054245
185.008951915261
183.411539784254
181.810273311291
180.210431083417
178.616302232676
177.030419913865
175.458093068907
173.90976980939
172.397020562239
170.926870052352
169.501053200215
168.119541823967
166.784062741488
165.496695836009
164.255903251586
163.051109100646
161.864215152299
160.678702132343
159.488407081303
158.297066339964
157.113997172046
155.950019636945
154.815693298647
153.720850812536
152.671029410539
151.66851632552
150.712362809847
149.796235711614
148.907787862752
148.034325531301
147.166657327547
146.302171081551
145.440895917786
144.589755083029
143.752679668389
142.936302982204
142.13871832202
141.390902251328
140.391551920932
96.6074237653175
97.1323764592864
98.3435334344866
99.8316151763247
101.470455458935
103.122109020209
104.719204582711
106.227304944419
107.630298952732
108.924929868922
110.116034279278
111.212965344928
112.227013389878
113.169801818992
114.052348190866
114.884722978391
115.675918247154
116.433928687805
117.165782283975
117.877622328065
118.574908317586
119.262861878096
119.946240584441
120.626471264693
121.296246376255
121.940235946803
122.553640777527
123.156570137509
123.788531613868
124.50474786653
125.326486132888
126.247438421228
127.262240121268
128.366914549597
129.558900562931
130.836938578625
132.20037464921
133.647303414644
135.17548246327
136.781996353608
138.463747959757
140.217841898101
142.041681807739
143.932981597071
145.889739997846
147.910183694625
149.99269218888
152.13572135915
154.337713991698
156.597064106102
158.912069175573
161.280939379601
163.7016653508
166.171359223322
168.704534030775
171.355683077607
174.16420211085
177.107055581294
180.135472624617
183.197285037075
186.248332596283
189.258231488013
192.208388168309
195.088253689815
197.890103150856
200.608011667396
203.234596815047
205.761961425382
208.179354948213
210.475422536859
212.635768616218
214.645863403206
216.488321707353
218.146771817403
219.602654740266
220.839829982479
221.840030581254
222.588434223888
223.069758967021
223.279117950878
223.230631592406
222.984525110639
222.579911378126
222.100884123595
221.522194690914
220.784167030154
219.938322056486
219.018457931386
218.043583864845
217.023425340783
215.959994152263
214.851620702976
213.693033156275
212.479943429391
211.208913193534
209.877556787921
208.485849786662
207.035361767519
205.530487873889
203.976805747267
202.381994629422
200.756505459926
199.113903468499
197.465849509821
195.820440264506
194.183141949679
192.558683955555
190.949238326297
189.35577349539
187.774138048246
186.195200808802
184.611734900495
183.021829165549
181.428490494862
179.836945689897
178.251554527553
176.67467412216
175.111389680511
173.571967120176
172.068072896154
170.606756171703
169.189690458654
167.816501984044
166.488600119533
165.208072424301
163.973578531024
162.775054800745
161.594649367959
160.415750518826
159.232014618327
158.04727566482
156.870884219306
155.713628235505
154.586011379861
153.497766017488
152.454237835217
151.457700580141
150.507097434353
149.596017374784
148.712170058308
147.84292443186
146.979244933974
146.118757682389
145.26156781415
144.414705657097
143.582176475451
142.770443385834
141.977602438504
141.233636936529
140.238370901689
96.5604457909819
97.0806543452
98.288872535891
99.7719571429594
101.40510216669
103.05128754523
104.643464568334
106.147167482485
107.546101163053
108.836900142652
110.024413836215
111.118029966977
112.129077726565
113.069196493376
113.949430118852
114.779861170952
115.569508976908
116.326381777926
117.057524836466
117.769095900307
118.466573418508
119.155149144563
119.83950162625
120.521164044691
121.193461023362
121.841941004327
122.461552726152
123.071571350998
123.708785661036
124.428195641162
125.252259398574
126.174985992805
127.191268853447
128.297335950033
129.490791307923
130.770478664751
132.135642964596
133.584383567959
135.114310698931
136.722482787986
138.405840208072
140.161529126001
141.98699281486
143.87997895471
145.838510978999
147.860829659536
149.945318575028
152.090424210204
154.294574841137
156.556147290244
158.873439400023
161.244669740956
163.667865590174
166.140354750496
168.687613375239
171.363643358461
174.192049944576
177.143611589983
180.170427197152
183.223954449806
186.263898516165
189.262362406211
192.201837024533
195.071507832394
197.863203099444
200.570166427868
203.184457995591
205.697337876167
208.097572638083
210.372965272303
212.508677372828
214.489292375658
216.297056541373
217.91478969302
219.323803472119
220.507367601993
221.447630744262
222.130331092469
222.542848853327
222.685968405488
222.591166834054
222.316397298646
221.921895645559
221.486282324287
220.925097479104
220.205463184351
219.376412259582
218.469699394843
217.503984336693
216.489100093219
215.427593139676
214.318417346861
213.157283566512
211.940408876606
210.665031544785
209.329372054439
207.933836491934
206.480342305274
204.973546574567
203.419220295383
201.82511144576
200.201760405367
198.56284072543
196.919871269829
195.280523211741
193.649878954266
192.032466746838
190.430482927453
188.844722497933
187.271145126497
185.700623153251
184.125973070664
182.545356436148
180.961793147417
179.380476128858
177.805818516503
176.240015841674
174.687847546518
173.159374431016
171.666335768801
170.21584231656
168.809476669007
167.446486881983
166.127880243112
164.855717084931
163.628937764014
162.438072917777
161.26561123133
160.094812561791
158.919118971721
157.742457351573
156.574240252545
155.425200797918
154.305781758925
153.225575041798
152.189722488525
151.200471664492
150.256645337209
149.351730178718
148.473494900795
147.609411240742
146.750620397196
145.895023273744
145.0428389456
144.20120894552
143.374221056002
142.568144318993
141.781065198576
141.041962262732
140.051765595813
96.5032597842593
97.017996996234
98.2218242978847
99.6986247805743
101.325340032705
102.965756977715
104.552503125835
106.050870730026
107.444613828393
108.730545122006
109.913626677316
111.003249859928
112.010715370162
112.947650293829
113.825119155021
114.653231852717
115.441037412685
116.196562921863
116.926872761339
117.638145671777
118.335871021687
119.025193271181
119.710713440511
120.394131886881
121.069575116225
121.72363522505
122.350844330977
122.969411709698
123.612901602272
124.336090364499
125.16289878824
126.087717772352
127.105755764249
128.213485267778
129.408701379617
130.690350628917
132.057579836368
133.508448353189
135.04042965582
136.650561658446
138.335827267196
140.093421394107
141.920833292662
143.815849287147
145.776520502308
147.801102626775
149.887981371391
152.035591128582
154.242339872368
156.506582105135
158.826610782431
161.200650710751
163.62674166954
166.104955728401
168.671935060002
171.377685712736
174.227278681399
177.186832164184
180.21037627184
183.253637692467
186.280430450241
189.265422847103
192.192246897764
195.049642455377
197.828878939526
200.522273789455
203.121145234442
205.615799682052
207.994324674258
210.243573155886
212.348066180895
214.291398733486
216.055264270133
217.621610595663
218.971478192542
220.087656837709
220.952961995543
221.554555885917
221.884010237464
221.951208375059
221.80637737237
221.508660902701
221.136798880794
220.749327706948
220.207967503757
219.509178166555
218.698818077628
217.806632225098
216.850834909593
215.841403845951
214.781543661105
213.670961114971
212.506435140459
211.284876695899
210.004261297155
208.663520041963
207.26353489746
205.806639203621
204.297768149365
202.742933632794
201.149937205607
199.529444070492
197.895233107019
196.25866789561
194.626870956416
193.004482189657
191.395792163325
189.802963163632
188.226660338231
186.66294868392
185.102738362808
183.538877899171
181.96963602765
180.398012603047
178.829164681482
177.267556574785
175.715232637521
174.176588470069
172.661433670645
171.18155962248
169.744170060805
168.350740554591
167.000099665798
165.692765369363
164.430726365202
163.213283545139
162.031667086603
160.868812348531
159.707822426912
158.541873455079
157.374982694213
156.216654536907
155.077545322772
153.968024111565
152.897495207262
151.870888638365
150.890418477404
149.954762959775
149.057285713619
148.185819353175
147.327977683195
146.475108161786
145.625424903453
144.77929997312
143.94399159622
143.123678500546
142.32440664533
141.544241886644
140.811189155968
139.827249279193
96.4340712331337
96.9431916830366
98.1406261561724
99.6096789074063
101.229095467839
102.863456199618
104.444171445082
105.936067430344
107.323301113387
108.60319872565
109.780917901001
110.865791892093
111.869020023483
112.802190560267
113.676390656292
114.501770102049
115.287411905553
116.04136544939
116.770717167198
117.48166999485
118.179716185117
118.869935727462
119.556849626903
120.242395040876
120.921708492305
121.582643288607
122.219128290456
122.84791235746
123.498832832849
124.226445392541
125.056443986839
125.983690335496
127.003776764409
128.113463919721
129.310763415456
130.594721586206
131.964380468402
133.417716242405
134.952079770463
136.564499517065
138.252006651217
140.011852311781
141.841578147291
143.739013779669
145.70224076061
147.729529909964
149.819266178022
151.969867289474
154.179713422935
156.447128442826
158.770391627042
161.147727642969
163.576698544655
166.066555472113
168.661554802837
171.400056872583
174.27088386027
177.236847035084
180.254894810975
183.28561655628
186.297081878351
189.266484738004
192.17839935061
195.021085188153
197.785085773215
200.461669020361
203.041201670442
205.512891772243
207.863920858911
210.080051370029
212.144935372438
214.041049768554
215.749328208474
217.25079586205
218.526103434512
219.557778907403
220.329929928367
220.832609316698
221.063979163969
221.049103494557
220.85353363896
220.546263734624
220.214666951489
219.874864532147
219.35560139447
218.679665802852
217.889402123008
217.012633760707
216.067064320653
215.062876547565
214.004050962493
212.891188738907
211.722228228446
210.494939523194
209.208112722633
207.861477211398
206.456444495562
204.995815912145
203.484830624648
201.929774476408
200.33849755511
198.721813232172
197.093615880894
195.465080694067
193.842651837375
192.230442492548
190.632477895135
189.050826134116
187.48604834774
185.934333500112
184.386663159851
182.835917907142
181.280499238659
179.723354451899
178.169583725721
176.623712308062
175.087647519848
173.565324249798
172.06623060666
170.602185424667
169.180513950207
167.802582167103
166.466754484561
165.172966909467
163.923080858133
162.71683374249
161.546282749496
160.394934640345
159.245716000114
158.091465581535
156.936287430229
155.789811706372
154.662595209949
153.564911144529
152.505918675705
151.490340305156
150.520350656453
149.594447551521
148.705855050625
147.842478355543
146.992112460663
146.146348494626
145.30375406336
144.464895255967
143.637151242125
142.824801349743
142.033634921136
141.261686841353
140.536040975452
139.559814062577
96.3519589690042
96.8523875874259
98.042172101992
99.502857383961
101.114573011896
102.742426616329
104.315976144488
105.799876588164
107.179140582985
108.451794368616
109.623163659323
110.702444171454
111.70068644227
112.629433084876
113.499802868581
114.32199453086
115.105127489693
115.857274851969
116.585547037439
117.296171618632
117.994635448595
118.685938935565
119.374523338419
120.062634847496
120.746636638139
121.415928095508
122.063724372958
122.704651559901
123.364339290776
124.097091677677
124.930736505196
125.860750167516
126.883192627785
127.995157447573
129.19489558664
130.481544113067
131.854021559576
133.310183795326
134.847279126446
136.46234101933
138.152455962339
139.914938965369
141.747390361187
143.647687433282
145.613944627268
147.644447364952
149.737575224415
151.891721977739
154.10523052178
156.376380674003
158.703418196433
161.084626376052
163.518151229795
166.027853955507
168.660006633017
171.432961130811
174.32352924169
177.293300552406
180.303180224056
183.318823091707
186.312613934861
189.264179076136
192.158578012342
194.983648829884
197.728993589052
200.38466634797
202.939841807182
205.382434747346
207.698458171456
209.872394413626
211.886769102607
213.722770036758
215.360358493041
216.779605329985
217.96080288581
218.886701860791
219.544031866839
219.928214909213
220.047455175502
219.951447393849
219.711178705508
219.417329102659
219.14871236587
218.847253832616
218.351057783507
217.699125065344