/*--------------------------------*- C++ -*----------------------------------*\
  =========                 |
  \\      /  F ield         | OpenFOAM: The Open Source CFD Toolbox
   \\    /   O peration     | Website:  https://openfoam.org
    \\  /    A nd           | Version:  12
     \\/     M anipulation  |
\*---------------------------------------------------------------------------*/
FoamFile
{
    format      ascii;
    class       volVectorField;
    location    "0.028";
    object      U;
}
// * * * * * * * * * * * * * * * * * * * * * * * * * * * * * * * * * * * * * //

dimensions      [0 1 -1 0 0 0 0];

internalField   nonuniform List<vector> 
54000
(
(-1.61747753095759 1.17793145058086 3.04343363587515e-07)
(-4.00329128956926 1.22713252582103 1.30076131292686e-06)
(-6.6681704830604 1.20459131259391 1.49059375856338e-06)
(-9.34052533177156 1.19889202616977 2.04558180619888e-06)
(-12.1941728229363 1.13826507284673 2.36797732050718e-06)
(-15.0597594860133 1.14218588703709 3.25476264631867e-06)
(-17.9399612658483 1.08010477434301 3.65720274434119e-06)
(-20.8250889129486 1.08172960678726 4.82375598555703e-06)
(-23.6997650606118 1.01762617777863 5.18485480524767e-06)
(-26.5543009177076 1.01778188165813 6.58589128476722e-06)
(-29.3786354337816 0.952616770588512 6.81389142637935e-06)
(-32.1662593885722 0.950603519370595 8.39192921639495e-06)
(-34.9084383581715 0.884451787516086 8.41233143704823e-06)
(-37.6000070738286 0.87992748277368 1.01044974348505e-05)
(-40.2333765907072 0.813520346903423 9.86682052747849e-06)
(-42.8042065744653 0.806646020352232 1.16165934257173e-05)
(-45.3070896487203 0.740821654450032 1.11136534668954e-05)
(-47.7429202030795 0.73356078842561 1.29874809565079e-05)
(-50.093432609898 0.697338975808987 1.34285196081731e-05)
(-52.3597384535708 0.633361324877919 1.23911155011347e-05)
(-54.5363110572735 0.624620213013688 1.41638301789163e-05)
(-56.6063203892426 0.589324815741068 1.43318448868109e-05)
(-58.5758634374393 0.529210220934594 1.29012227105268e-05)
(-60.4512523403173 0.51747357317704 1.43800702367773e-05)
(-62.216779174499 0.459807386372274 1.28733319303092e-05)
(-63.7552687379565 0.441720839744255 1.42381196709984e-05)
(-64.8752464890946 0.37202778168764 1.24552750520125e-05)
(-65.5769188823041 0.35979216556059 1.41831524181045e-05)
(-66.050030057729 0.324068273406393 1.40948069605188e-05)
(-66.3952798983282 0.285777064681903 1.26080687577315e-05)
(-66.650368640572 0.260494860898557 1.37807321335665e-05)
(-66.8336411512185 0.230856529400695 1.23676485856785e-05)
(-66.9556207055331 0.210360735333849 1.35115844052062e-05)
(-67.0162746663806 0.18649039141402 1.2065587966005e-05)
(-67.0141964582489 0.165479198334934 1.31332566496068e-05)
(-66.9439475128241 0.143541416004215 1.16467800304257e-05)
(-66.8009852294139 0.12511148812667 1.2593687673443e-05)
(-66.5761431750049 0.102243034141715 1.10540330434855e-05)
(-66.2616111460359 0.0818415877673077 1.19224879321832e-05)
(-65.8383866007327 0.0584440236814341 1.15032319212621e-05)
(-65.2931935265054 0.0331991111314188 1.09245267023174e-05)
(-64.6076450590988 0.00576049765324594 1.02401675640514e-05)
(-63.7638430681434 -0.0239521773172505 9.46112045819244e-06)
(-62.7436810319799 -0.0554586364106974 8.56636715697638e-06)
(-61.5293965123535 -0.0889036893885803 7.56744086638232e-06)
(-60.1042894465428 -0.124430446948732 6.45430354670815e-06)
(-58.4544378403933 -0.16216883826389 5.20121895222086e-06)
(-56.5581695466227 -0.19825544788705 3.42977884590517e-06)
(-54.4092871235147 -0.242921536328197 2.38277673595767e-06)
(-51.9915967672276 -0.280801138889865 7.15389385274782e-07)
(-49.2968602066758 -0.330047456213692 -8.95546564687356e-07)
(-46.311499601544 -0.369029651385526 -2.45759874745023e-06)
(-43.030292275407 -0.422861076180399 -4.72184163578156e-06)
(-39.4468445911873 -0.464806509438757 -6.1420149996351e-06)
(-35.5878615468309 -0.530680229925151 -9.21315701820657e-06)
(-31.4271459313812 -0.600265644072286 -1.16854159296507e-05)
(-26.7183261859821 -0.66649525161264 -1.27206158531547e-05)
(-21.2626102502256 -0.824982222566417 -1.76444032924382e-05)
(-14.9928783617033 -0.956988245874948 -2.10546696715235e-05)
(-7.90773404526188 -1.02790485407002 -2.16526714272679e-05)
(-0.0933891057505227 -1.20086572524739 -2.85380962053861e-05)
(8.34768422868097 -1.23073897886224 -2.85388822118763e-05)
(17.3251467377718 -1.39116646592755 -3.67072801488877e-05)
(26.7667680538026 -1.38781801732382 -3.57119092182599e-05)
(36.6289641412412 -1.54824640320412 -4.50152070840811e-05)
(46.8818430538209 -1.52472161650786 -4.27430927009442e-05)
(57.5121725884668 -1.69443735079385 -5.28815923767794e-05)
(68.5093008135536 -1.65622395125487 -4.89643515734558e-05)
(79.8701156909178 -1.84015097018097 -5.92461094097029e-05)
(91.5933540705715 -1.78946571270715 -5.3121513590612e-05)
(103.682139790683 -1.99151003723278 -6.22088745303275e-05)
(116.140989749292 -1.92829352116325 -5.32308179879489e-05)
(128.966848458703 -2.14976848691923 -5.9224728443465e-05)
(142.153006178006 -2.07078666450241 -4.7238459437078e-05)
(155.673373509796 -2.31190717566215 -4.85519809849686e-05)
(169.505200767054 -2.21422450702738 -3.48779442578922e-05)
(183.604701609659 -2.47803403290373 -3.21081572229972e-05)
(197.931524597763 -2.35718103741778 -2.08009714165505e-05)
(212.382211717452 -2.64163242787718 -2.00335167611409e-05)
(226.795731729476 -2.4776390574701 -1.80342379770864e-05)
(240.853946702677 -2.76722645087446 -3.02570379089287e-05)
(254.229333132861 -2.56850103973359 -3.81295049657506e-05)
(266.174446367336 -2.73747590586461 -6.02509186649179e-05)
(276.178144618508 -2.54645893073892 -5.84201552160842e-05)
(284.441067414743 -2.43195160099144 -5.5095973945768e-05)
(292.23282490586 -2.21660760532369 -1.88532018065566e-05)
(299.938344132202 -2.11138561363339 2.47736491205045e-05)
(307.465528340043 -1.94551102380783 5.27233717346348e-05)
(314.787895191436 -1.88292041347582 5.94625477093749e-05)
(321.911804910887 -1.76386504398116 6.73919954381265e-06)
(328.862459676766 -1.73414781416062 -9.41870980519957e-05)
(335.586227600489 -1.67329399572103 -0.000224193598449974)
(342.219707319432 -1.59046148353363 -0.000311293251212196)
(348.706594595177 -1.57723633027763 -0.000458223633354068)
(355.080676562501 -1.5005167533816 -0.000445567718848487)
(361.349185482037 -1.48607561881875 -0.000489200364793481)
(367.526489299997 -1.40910458901651 -0.000361263850553745)
(373.610181799346 -1.3893539692902 -0.000303950625226033)
(379.603923659542 -1.31035464909108 -0.000194113105352273)
(385.496740101815 -1.2847762397673 -0.000207744499870624)
(391.278622357008 -1.20410628611613 -0.000242940404634602)
(396.922452122385 -1.17339368075651 -0.000401851642339072)
(402.406861204227 -1.09491080026975 -0.000460430814389039)
(407.712850026537 -1.06527686582382 -0.000600744967905194)
(412.838793934088 -0.994024476151112 -0.000520571350507567)
(417.79456977284 -0.968470086105576 -0.000503020565668713)
(422.552987984504 -0.921388814690263 -0.000356732221774526)
(427.176670714546 -0.860465125755193 -0.000176028021039943)
(431.650338316356 -0.838382875790503 -8.56765057699408e-05)
(436.011345988784 -0.782397841347179 -2.74748426282511e-05)
(440.284875626014 -0.758334629234583 -1.58770070220497e-05)
(444.482740571705 -0.700109590347246 -2.53160782013648e-06)
(448.600290449506 -0.670087130348691 3.59980357143926e-05)
(452.633723747291 -0.612323402062279 9.08733968074649e-05)
(456.577150391816 -0.582302395186673 0.000189583446694942)
(460.427752247077 -0.530024524622462 0.000226385359365075)
(464.171790519445 -0.500960831966823 0.000277613767176293)
(467.788353317653 -0.452168605441566 0.000199784727733961)
(471.257348492428 -0.425537770286804 0.000136287896822116)
(474.575818054676 -0.386751720132876 4.67287572786777e-05)
(477.749993248021 -0.370002343934069 9.64675385231034e-06)
(480.788209008512 -0.342771230234691 -3.29144439232723e-06)
(483.695696068778 -0.333290928871767 -2.1770047452491e-05)
(486.469772401901 -0.317823440526965 -6.09513847471023e-05)
(489.142645234501 -0.299136366630073 -8.84761132188148e-05)
(491.730379305236 -0.294239189489448 -0.000110092042722885)
(494.254505295644 -0.277495524612711 -6.36652157336109e-05)
(496.713267399162 -0.269605569715201 -1.02164202807656e-05)
(499.09597941488 -0.247383260158755 3.26361306207148e-05)
(501.403574394033 -0.233147822737717 4.66920559812054e-05)
(503.660143259451 -0.208924397393654 1.43500687242997e-05)
(505.883729634329 -0.193517865075274 -3.88463035907692e-05)
(508.088679442684 -0.172956944495109 -8.03556880057614e-05)
(510.277646466911 -0.163284614926217 -0.000126862786071304)
(512.440772237347 -0.151699327354702 -0.000119992541855024)
(514.529689848789 -0.149337927829079 -0.000128010446492889)
(516.514355085989 -0.143942064145456 -8.50975040453409e-05)
(518.387308494021 -0.146251122692019 -4.65894529094254e-05)
(520.148823964068 -0.145941300810023 8.20252158171172e-06)
(521.817922431331 -0.142604124989791 3.65982768352573e-05)
(523.412744579246 -0.142795005790815 4.27923432113863e-05)
(524.949222559802 -0.136449257482939 6.7741723584947e-06)
(526.450744975901 -0.126048116354889 -2.41591635232765e-05)
(527.935687166438 -0.117727672001797 -2.49500719837669e-05)
(529.393530203937 -0.106819280208272 -1.03848944543816e-05)
(530.852467785628 -0.0968285013120227 -2.06232812882524e-05)
(532.303505418079 -0.0950173932196944 -6.66127529387688e-05)
(533.733281427476 -0.0916396185332891 -5.44991113629744e-05)
(534.992539273888 -0.102642375366326 -6.71366014751931e-06)
(536.610474499432 -0.110885292531603 9.21627243969351e-06)
(-1.6400085965667 1.9489721388335 4.64473584361553e-07)
(-4.03016581247637 2.02232112156385 2.2934951210267e-06)
(-6.67447482908827 2.00746065590251 2.79715409148749e-06)
(-9.33277400478465 1.97999728048774 3.57226380686619e-06)
(-12.1883863509143 1.92822845812362 4.44836933569768e-06)
(-15.0547155515583 1.89393356400298 5.6675052179268e-06)
(-17.9341368539705 1.8362241740487 6.85876840854289e-06)
(-20.8178008821676 1.79752885524302 8.37861206185947e-06)
(-23.6915911730165 1.73544046905745 9.71290081215628e-06)
(-26.5448107217851 1.69328332790659 1.14180483270995e-05)
(-29.3685909459493 1.62809248905233 1.27568519822324e-05)
(-32.1548937962479 1.58296431757917 1.45259707175337e-05)
(-34.8962661333385 1.51470364097456 1.57419337333966e-05)
(-37.5862341374643 1.46662714152063 1.74648083444084e-05)
(-40.2186174650685 1.39617296921669 1.84563170569665e-05)
(-42.7882929808054 1.34621199388443 2.0049098456388e-05)
(-45.2909345539216 1.27537080501357 2.0767202276415e-05)
(-47.7234735506218 1.22604996568543 2.22615476856651e-05)
(-50.0712611803066 1.16531443681413 2.30438962122262e-05)
(-52.3371480255472 1.0942377569221 2.31461321171442e-05)
(-54.5109469168304 1.04509546400067 2.42495950163805e-05)
(-56.5779223010953 0.985581251150216 2.45614089111829e-05)
(-58.545436565484 0.916584622836605 2.4119572989588e-05)
(-60.4181149998144 0.866676048956056 2.47178276544737e-05)
(-62.1792522629407 0.798430461041365 2.40893121669175e-05)
(-63.7118406563053 0.74185052282928 2.44744036786009e-05)
(-64.8344972587889 0.662695127530015 2.36229040785179e-05)
(-65.5378869498454 0.606046860291203 2.4235065600045e-05)
(-66.0110666929337 0.542240211520385 2.40654763409341e-05)
(-66.3539873871662 0.483093273499902 2.3276994193169e-05)
(-66.6088460950231 0.43615227532228 2.35940132588858e-05)
(-66.7926036765919 0.390490954587759 2.28455120389954e-05)
(-66.9146957500507 0.352443780303173 2.31250107603795e-05)
(-66.97545266551 0.314059055117544 2.22941805303678e-05)
(-66.9733063203657 0.278565356124961 2.24695227606075e-05)
(-66.9036108202637 0.24279360359816 2.15204258351966e-05)
(-66.7601288947811 0.209362910644954 2.15393040015308e-05)
(-66.5349769569578 0.172762154594464 2.04286500261989e-05)
(-66.2192988408615 0.136641796056351 2.03188995880266e-05)
(-65.7961458618452 0.0974177382467696 1.95479441412592e-05)
(-65.250219293703 0.0552178706795471 1.85530410977278e-05)
(-64.5636753705824 0.00954246077484161 1.73849430233166e-05)
(-63.7185252687137 -0.0396834777124205 1.60527113858118e-05)
(-62.6967272940988 -0.0922735359505613 1.45376965121764e-05)
(-61.4806506599242 -0.148281410865731 1.28376673625402e-05)
(-60.0535224879432 -0.207812235746736 1.09422377806528e-05)
(-58.4002879931891 -0.270912751501176 8.82309894311531e-06)
(-56.5027712420607 -0.335142116628177 6.3157318473563e-06)
(-54.3510573388364 -0.406212104261047 4.02464027836226e-06)
(-51.930987353485 -0.475105302458749 1.28464961621039e-06)
(-49.2328806746549 -0.552157932496783 -1.58162466375882e-06)
(-46.2446974525289 -0.624713738970446 -4.59958892163947e-06)
(-42.9597189301211 -0.707817631007128 -8.12050944560524e-06)
(-39.3736339691689 -0.787226651557372 -1.14318604126718e-05)
(-35.5149073300463 -0.88840025733235 -1.57561820253497e-05)
(-31.3430565377321 -1.00811634084333 -1.9994763996217e-05)
(-26.6176653029651 -1.16064600989669 -2.38739711259967e-05)
(-21.1439479826872 -1.3857735047393 -3.01545840200512e-05)
(-14.8563267388259 -1.60608586108229 -3.59958549241308e-05)
(-7.75610404942373 -1.79052482423759 -4.07036322768406e-05)
(0.0702880416509016 -2.01074031530178 -4.88374052203056e-05)
(8.52185880440542 -2.14387308192914 -5.37018341702093e-05)
(17.5074759387115 -2.32739855947735 -6.27853282827257e-05)
(26.9575317742626 -2.42082195629809 -6.72697572212443e-05)
(36.827307751517 -2.58960190168846 -7.69672174293397e-05)
(47.0887522928363 -2.66432738696313 -8.06127840281546e-05)
(57.7274372542067 -2.83391719455945 -9.0396179669317e-05)
(68.7339676349234 -2.89968329538148 -9.24741959737442e-05)
(80.104428861701 -3.07753592221632 -0.000101262445555721)
(91.8381334439362 -3.13928076315057 -0.00010047732412884)
(103.937978083797 -3.33057403927542 -0.000106311171922527)
(116.408123649919 -3.38986270555429 -0.000100830850170809)
(129.24622341914 -3.59509245548246 -0.000101162813960818)
(142.444082046095 -3.6485884535694 -8.95668733591376e-05)
(155.977575428962 -3.86609612680406 -8.27944179087066e-05)
(169.821006229367 -3.91174865637838 -6.60796353041139e-05)
(183.933597477414 -4.14385306840525 -5.44352945208631e-05)
(198.27006772936 -4.17826864693392 -3.91170940368129e-05)
(212.729813611659 -4.41737404214915 -3.3402942588786e-05)
(227.145725420637 -4.41464474813905 -3.36599890152377e-05)
(241.206927334994 -4.6262021690406 -5.06205362782038e-05)
(254.555896821869 -4.54017670332649 -7.21043079640721e-05)
(266.48887211124 -4.57577512906163 -0.00010234755194638)
(276.422518443712 -4.3366345716196 -0.000109579532160843)
(284.649696550837 -4.0550219953393 -9.45249597288786e-05)
(292.438825365489 -3.74315923252861 -3.56802866792782e-05)
(300.138676699926 -3.52213867944257 4.16799676913275e-05)
(307.659839088876 -3.28742023177573 9.82514807057055e-05)
(314.977679365247 -3.14238677155352 0.000102279095080659)
(322.096760769921 -2.98175250278101 1.38578454813742e-05)
(329.03736377104 -2.89399438944566 -0.00015843833351214)
(335.771743060936 -2.79496977063772 -0.000380109487898745)
(342.395153130499 -2.69033615875511 -0.000578398980544458)
(348.879428187831 -2.6337677706525 -0.000780556923642223)
(355.249958344491 -2.53782182942037 -0.000829706997876272)
(361.51584422851 -2.48118003365721 -0.000834990664735617)
(367.689337409269 -2.38297958232107 -0.000673446258137563)
(373.769945807857 -2.31934542193177 -0.000519133490498964)
(379.759561987297 -2.21570562355385 -0.0003613080354159)
(385.648827450334 -2.14439775539802 -0.00035334824967379)
(391.426369705113 -2.03572490844409 -0.00045138526179074)
(397.066270631025 -1.95812638540297 -0.000683484626340523)
(402.54613005958 -1.85076443479923 -0.000856978205435338)
(407.848002904369 -1.77736919192056 -0.00102372664009854)
(412.969464417662 -1.67990830819367 -0.000970131800550865)
(417.918261572142 -1.6150776330665 -0.000858541396541101)
(422.678763489933 -1.53764575109804 -0.000608556520988356)
(427.295578734642 -1.45411071823381 -0.000328246620861023)
(431.765637422765 -1.39811354831693 -0.000146430886404193)
(436.122942854412 -1.32143797610412 -5.11736990012969e-05)
(440.393254048041 -1.26405670828413 -2.72799117331836e-05)
(444.587663272949 -1.18189639915487 -5.06243760892134e-06)
(448.701910274995 -1.11642031038819 6.06660354480961e-05)
(452.731739060123 -1.03309692412605 0.000169037973452057)
(456.671675716911 -0.969629823579149 0.000322728137963802)
(460.518728249106 -0.893644762035239 0.000422404952406776)
(464.259497346809 -0.833656065132078 0.000473960729276844)
(467.872789251067 -0.761730105325733 0.000373150751339602)
(471.3385597924 -0.707539246013182 0.000233063730647053)
(474.653750142908 -0.650899357202806 8.71741848584317e-05)
(477.824863695018 -0.614733108659959 1.64902159092403e-05)
(480.860211323596 -0.576484890764707 -6.16134975725741e-06)
(483.764392306992 -0.553324718218392 -3.69903373189167e-05)
(486.53773981798 -0.528080958410949 -0.000103739201590602)
(489.207608886759 -0.502871281233203 -0.000165252140153121)
(491.793280828149 -0.488374762469799 -0.000188057588636813)
(494.315422010298 -0.466113806097022 -0.000119017358470399)
(496.77261630949 -0.44719688774512 -1.77453042436629e-05)
(499.153734665558 -0.415150363963962 6.0957273484477e-05)
(501.459848817589 -0.386311042266831 7.97434230503072e-05)
(503.714577244887 -0.350086220932062 2.68288751831717e-05)
(505.936524111671 -0.32018822688424 -6.60325235499862e-05)
(508.139410776455 -0.289318630094421 -0.000150062557837095)
(510.326717997899 -0.269846768378137 -0.000216379961890781)
(512.487801253121 -0.253500648574686 -0.000224084175786713)
(514.574989110684 -0.246708099422653 -0.000218540817523261)
(516.558234559988 -0.240537081014712 -0.000158952413830475)
(518.429405727102 -0.241600206256937 -7.97195785967835e-05)
(520.190340077625 -0.241437080859597 1.38799757046008e-05)
(521.858227322157 -0.238527781866591 6.84234693886661e-05)
(523.451833063417 -0.235977140921091 7.31737152235769e-05)
(524.987987075538 -0.225680509037068 1.16842360680329e-05)
(526.488334029293 -0.210621067963494 -4.51678915064069e-05)
(527.972163860642 -0.194229639490475 -4.2623411753675e-05)
(529.429393798141 -0.176316550013248 -1.76627194859836e-05)
(530.886920495827 -0.161350529938599 -3.84920774375235e-05)
(532.336786620514 -0.156587986398422 -0.000113576037405044)
(533.765627675153 -0.152663173534757 -0.000101856235893785)
(535.024132013441 -0.169242234544714 -1.16343616919928e-05)
(536.641398159202 -0.18510218254068 1.72139818481811e-05)
(-1.66427271444232 2.78910891262247 6.47849813236139e-07)
(-4.05242760456088 2.8730653512496 3.35210040023745e-06)
(-6.68375170640588 2.85650851602454 4.10468811561086e-06)
(-9.33140228562776 2.81526988448817 5.18647706444706e-06)
(-12.182585416097 2.75773345529485 6.53175838669674e-06)
(-15.0468742461518 2.69805229832642 8.2229491929049e-06)
(-17.9244766051732 2.62655108563462 1.00716909662522e-05)
(-20.8061094606738 2.55999183891437 1.21491345046161e-05)
(-23.6781393964139 2.48269421344624 1.42619437664171e-05)
(-26.529688777993 2.41155800981969 1.65451912517339e-05)
(-29.3520414627252 2.32995017607739 1.87292524025827e-05)
(-32.1366033441098 2.25444968249088 2.10351359913262e-05)
(-34.8762072511307 2.16836568361264 2.31095600512034e-05)
(-37.5640062885078 2.08880719502568 2.52753057035665e-05)
(-40.1944156585672 1.9995554077542 2.70914890013203e-05)
(-42.7620584039287 1.91784786174658 2.89945885769195e-05)
(-45.2625930678383 1.82781886541658 3.04628939339345e-05)
(-47.6908470231274 1.74616837406831 3.20705835759535e-05)
(-50.0363648212945 1.65962418727493 3.32197718561592e-05)
(-52.2992811831645 1.56936053340435 3.39461359432104e-05)
(-54.4687253946671 1.48836459226065 3.49154808886717e-05)
(-56.5325910501636 1.40333558698358 3.53878095194856e-05)
(-58.4960203879268 1.31495071374414 3.54002456719812e-05)
(-60.3639927034854 1.23451459582235 3.5686424203283e-05)
(-62.1187711623237 1.1454427323116 3.53740966203767e-05)
(-63.6450684392382 1.05768819930489 3.53439208960927e-05)
(-64.7660717529586 0.957599035404628 3.47968157794383e-05)
(-65.4694290337969 0.865127225998528 3.4869647463292e-05)
(-65.9433201420262 0.773859890136016 3.46110731665985e-05)
(-66.2857596613471 0.691851230581993 3.40719850026652e-05)
(-66.5408599096182 0.622662452750581 3.39936621747856e-05)
(-66.7251468678142 0.559347419004198 3.34521258561816e-05)
(-66.8475399767414 0.503145842821225 3.33086750434588e-05)
(-66.9085604264679 0.4492690198834 3.26455831227788e-05)
(-66.9065093561327 0.398087847184439 3.2354952922556e-05)
(-66.8370977658534 0.347743084353883 3.15091754216113e-05)
(-66.6932860484353 0.298627837326969 3.10009451675133e-05)
(-66.4673883113843 0.247155063320337 2.99026167663867e-05)
(-66.150565503352 0.194575402082485 2.91625347896249e-05)
(-65.7266642042436 0.138497186109882 2.79945913696689e-05)
(-65.1794052575099 0.0783067894631817 2.65545359590691e-05)
(-64.4910937986898 0.0133327522414694 2.48734645213258e-05)
(-63.6437432262437 -0.0565898439659957 2.29530627872596e-05)
(-62.6193604994949 -0.131561137979485 2.07763149298042e-05)
(-61.4003797253327 -0.211636585536083 1.83330794065496e-05)
(-59.9699932764914 -0.296812578014171 1.560949924037e-05)
(-58.3126524221669 -0.386991569202263 1.25794056005533e-05)
(-56.4118212435652 -0.480703457861071 9.16924036206533e-06)
(-54.255812676495 -0.580570708976129 5.6838160909112e-06)
(-51.8314365082767 -0.681799808837308 1.77597910096751e-06)
(-49.1282384635142 -0.789396857863515 -2.39969029960614e-06)
(-46.1350265911328 -0.896793093619049 -6.87326026896904e-06)
(-42.8443702001956 -1.01227911022162 -1.18213722142711e-05)
(-39.2532707832939 -1.13042228235365 -1.69121463560778e-05)
(-35.3912361164068 -1.27011540122235 -2.27798499072091e-05)
(-31.2042221466434 -1.44215304703614 -2.89040688584719e-05)
(-26.451485491448 -1.67669953993213 -3.53092096371452e-05)
(-20.947757711265 -1.98327584762341 -4.35273431130228e-05)
(-14.6308595078534 -2.29806753362025 -5.19577215287504e-05)
(-7.50637099272848 -2.58389577685519 -6.01694464377289e-05)
(0.339782717673264 -2.87048737051611 -7.05100937326268e-05)
(8.80773119756111 -3.08977982783672 -7.93627616225025e-05)
(17.8070083283858 -3.31936290671649 -9.05794862618492e-05)
(27.2703055874191 -3.48873360199021 -9.94088027315993e-05)
(37.1528174178172 -3.69229579247683 -0.000110985861024314)
(47.4278275821059 -3.84095593050236 -0.000119151173004218)
(58.080450385776 -4.04014230398681 -0.00013031719376576)
(69.1020348784329 -4.18206443867435 -0.000136739782585641)
(80.4884279754828 -4.38707455083155 -0.0001459691578162)
(92.2390479677499 -4.52975322549812 -0.000148650941586578)
(104.356963893975 -4.74732341244462 -0.000153227016839413)
(116.845550022036 -4.89360314750113 -0.000149214978146893)
(129.703438436825 -5.12375838029354 -0.000145697470648545)
(142.92060842182 -5.2696552179953 -0.000132433898253)
(156.475115302225 -5.50927602960452 -0.000118901379304509)
(170.337903326234 -5.652994437238 -9.72639129235835e-05)
(184.471247003863 -5.90422395930911 -7.73725931709869e-05)
(198.823955540638 -6.04236788693919 -5.65430332272521e-05)
(213.298045503097 -6.29236659902265 -4.60556401870541e-05)
(227.717308524343 -6.39079346967522 -4.76139124440969e-05)
(241.773395238504 -6.58512620173981 -7.02773372043774e-05)
(255.085549347814 -6.5547906602754 -0.000104906678164788)
(266.971661967876 -6.50633655038034 -0.000146135061533719)
(276.815705865695 -6.19306209920526 -0.000161796048885925)
(284.994137884635 -5.77366793920083 -0.000137379653245249)
(292.778581475321 -5.35476691175899 -5.42548464648312e-05)
(300.468925918766 -5.01772865252267 5.86241311223815e-05)
(307.980443485252 -4.70565343657703 0.000144999615749876)
(315.290568145159 -4.47907690557473 0.000149313252084525)
(322.402222363357 -4.27005231757171 2.40254616114087e-05)
(329.333225239803 -4.12556834004214 -0.000222816288921588)
(336.070768960781 -3.98717228373686 -0.000541588273993517)
(342.685091980218 -3.85496814043465 -0.000848590695317274)
(349.164668265559 -3.75667017740959 -0.00112035925130551)
(355.529869887293 -3.63597370146813 -0.00122207611310778)
(361.791032698113 -3.53854840994132 -0.00120223423234581)
(367.958750864615 -3.41369464130936 -0.000993840008892177)
(374.033961498658 -3.30723331904605 -0.000748013935028225)
(380.017184651493 -3.17355303758547 -0.000531659387535924)
(385.900361024769 -3.05719149951503 -0.000505554017596514)
(391.671037917056 -2.91518828814954 -0.000661348101956101)
(397.304288134392 -2.7910155129989 -0.00097806636219135)
(402.776842127731 -2.64973471364977 -0.00125912402901727)
(408.071784293817 -2.53283656900877 -0.00146920153992647)
(413.186052100661 -2.40463004858044 -0.00142847482178462)
(418.12635080861 -2.30061314579777 -0.00123500171539148)
(422.884166201155 -2.19134511212954 -0.000875321167496107)
(427.492827611359 -2.0811319169348 -0.00048403440430714)
(431.956758396141 -1.99135460249881 -0.000210905007501581)
(436.30799982641 -1.89030697085658 -7.53650272861393e-05)
(440.572858330284 -1.79963167404172 -3.96974769697132e-05)
(444.761564237869 -1.68994224352998 -8.48264837487607e-06)
(448.87024795296 -1.58868853971196 8.53754150251158e-05)
(452.894047618097 -1.47642215135777 0.00024740156419137)
(456.828134490968 -1.37909432895008 0.000462096021379342)
(460.669222204532 -1.27645905924749 0.000621969594870476)
(464.404524727004 -1.18508669269429 0.000681681782245343)
(468.012266793849 -1.08738117929157 0.000550686620980616)
(471.472666471069 -1.00513865444432 0.000335928376094742)
(474.782313707381 -0.928553150204801 0.000128502215491388)
(477.948357252812 -0.872824598253431 2.36316569596768e-05)
(480.978910699677 -0.822065573252698 -9.11876633278054e-06)
(483.878462269969 -0.78525267926014 -5.28354960109755e-05)
(486.648994823887 -0.749812756191856 -0.000148581250258261)
(489.314675416617 -0.716902329887092 -0.000243584851336976)
(491.896934033541 -0.692917889726703 -0.000270723761717133)
(494.415791612983 -0.66408242926825 -0.000175946327148873)
(496.870358101624 -0.63416154986402 -2.61776770599916e-05)
(499.248812376304 -0.591101609159355 8.97216665105118e-05)
(501.55240825802 -0.54738894588272 0.000114714587390428)
(503.804097716573 -0.498004299840149 3.97209800964231e-05)
(506.023228696106 -0.453284713845697 -9.44484817050688e-05)
(508.222791624294 -0.411183623715857 -0.000221114671172032)
(510.407208513286 -0.381763461674407 -0.000310806258105977)
(512.565054081409 -0.360123064504644 -0.000330377166974462)
(514.649435137616 -0.348993191983892 -0.000314302018146526)
(516.630195041158 -0.341756691883386 -0.000234564898023994)
(518.498915212474 -0.341784786439187 -0.000115050566613975)
(520.258299273186 -0.34186984527786 1.96676761759965e-05)
(521.924394403326 -0.33909409660894 0.000100924867749292)
(523.516343873772 -0.333879032759327 0.000105457103272523)
(525.051429514272 -0.319463330130174 1.70343576496018e-05)
(526.550069926609 -0.299206875597062 -6.66651675149531e-05)
(528.032251494323 -0.274502065137323 -6.14075813157289e-05)
(529.488049061336 -0.249274348370371 -2.53127738461395e-05)
(530.943467526268 -0.228890486632363 -5.66464568193656e-05)
(532.391399748927 -0.221215433572988 -0.000163112216083179)
(533.818633172102 -0.216583859579642 -0.000150489655499318)
(535.07601794598 -0.238958076002441 -1.71304960051082e-05)
(536.691965156796 -0.262409908498059 2.52808460780395e-05)
(-1.68022999052564 3.6900508664542 8.32809126379291e-07)
(-4.06705432411928 3.76935934496577 4.46730752537595e-06)
(-6.6912131620497 3.74699261521357 5.46354953005667e-06)
(-9.3309051137546 3.69645815377527 6.88579864916811e-06)
(-12.1758963569489 3.63019002840571 8.68928864450934e-06)
(-15.0359939644897 3.54932699981724 1.09121534176381e-05)
(-17.9103490351432 3.45894020556313 1.33965350846377e-05)
(-20.7891501369409 3.36737521625563 1.61168282084276e-05)
(-23.6585828327713 3.26939273604646 1.89674748599244e-05)
(-26.5078934509025 3.17183252797123 2.19409037900892e-05)
(-29.327979851815 3.06811628875977 2.49051122625709e-05)
(-32.1101536693967 2.96461235764175 2.78851188434838e-05)
(-34.8470079812635 2.85495868894572 3.07250887561019e-05)
(-37.5318543021437 2.74624812646413 3.34937076735964e-05)
(-40.1591462284034 2.63263021921863 3.60125034027572e-05)
(-42.7235873086267 2.52143199955569 3.84033691765296e-05)
(-45.2203412039343 2.40668128079049 4.04686214412964e-05)
(-47.6436987472515 2.29500317445474 4.23907452552534e-05)
(-49.985768958261 2.18113955441231 4.39213603252429e-05)
(-52.2438301295938 2.06616446918457 4.50819192988667e-05)
(-54.4076632493121 1.95526913757331 4.61340074157995e-05)
(-56.467047234901 1.8430367578065 4.6774645019551e-05)
(-58.4245975216205 1.72999300205973 4.70347202842756e-05)
(-60.2857733588682 1.62031351873974 4.72231097845749e-05)
(-62.0319797334707 1.50580654632482 4.70149194190054e-05)
(-63.5499158148003 1.38852101721993 4.6777368117993e-05)
(-64.6663506745013 1.26239782301679 4.62832704896241e-05)
(-65.3687389763931 1.13727191517671 4.60563505903734e-05)
(-65.8437041555921 1.01767178792792 4.57042258133354e-05)
(-66.1866248290075 0.910868879623062 4.5228228618679e-05)
(-66.4423679875714 0.819043563506772 4.49311019767113e-05)
(-66.6273416309407 0.736380415832853 4.44124157200058e-05)
(-66.7502189349097 0.66159826942171 4.40152863170462e-05)
(-66.8116368114215 0.590920332220581 4.33361571472542e-05)
(-66.8097880544316 0.523375775421185 4.27411237629372e-05)
(-66.7404849931418 0.457426877855553 4.18171398786626e-05)
(-66.5962921349365 0.392205847310884 4.09301102956295e-05)
(-66.3693478933377 0.324734799024263 3.9660900437386e-05)
(-66.0511280652295 0.255139986179234 3.84221204368875e-05)
(-65.625777423165 0.181272837296414 3.68255538099681e-05)
(-65.0764606265217 0.102080007957598 3.49081844708358e-05)
(-64.3855108462624 0.0167636239071141 3.26798096457205e-05)
(-63.5349777993548 -0.0750992516935638 3.01340399268652e-05)
(-62.5069109414637 -0.17376328719642 2.72521981637114e-05)
(-61.2837601168243 -0.279310361129188 2.40189271501049e-05)
(-59.848693206976 -0.391651297532388 2.04169666625819e-05)
(-58.185942625331 -0.510550393669664 1.64223441593769e-05)
(-56.2798047402867 -0.634963011922836 1.20001663292604e-05)